 Entering Gaussian System, Link 0=g09
 Input=an.in2
 Output=an.log2
 Initial command:
 /local/g09-source/g09/l1.exe /scratch/1532360/TRAJ_1/Gau-17516.inp -scrdir=/scratch/1532360/TRAJ_1/
 Entering Link 1 = /local/g09-source/g09/l1.exe PID=     17518.
  
 Copyright (c) 1988,1990,1992,1993,1995,1998,2003,2009, Gaussian, Inc.
                  All Rights Reserved.
  
 This is part of the Gaussian(R) 09 program.  It is based on
 the Gaussian(R) 03 system (copyright 2003, Gaussian, Inc.),
 the Gaussian(R) 98 system (copyright 1998, Gaussian, Inc.),
 the Gaussian(R) 94 system (copyright 1995, Gaussian, Inc.),
 the Gaussian 92(TM) system (copyright 1992, Gaussian, Inc.),
 the Gaussian 90(TM) system (copyright 1990, Gaussian, Inc.),
 the Gaussian 88(TM) system (copyright 1988, Gaussian, Inc.),
 the Gaussian 86(TM) system (copyright 1986, Carnegie Mellon
 University), and the Gaussian 82(TM) system (copyright 1983,
 Carnegie Mellon University). Gaussian is a federally registered
 trademark of Gaussian, Inc.
  
 This software contains proprietary and confidential information,
 including trade secrets, belonging to Gaussian, Inc.
  
 This software is provided under written license and may be
 used, copied, transmitted, or stored only in accord with that
 written license.
  
 The following legend is applicable only to US Government
 contracts under FAR:
  
                    RESTRICTED RIGHTS LEGEND
  
 Use, reproduction and disclosure by the US Government is
 subject to restrictions as set forth in subparagraphs (a)
 and (c) of the Commercial Computer Software - Restricted
 Rights clause in FAR 52.227-19.
  
 Gaussian, Inc.
 340 Quinnipiac St., Bldg. 40, Wallingford CT 06492
  
  
 ---------------------------------------------------------------
 Warning -- This program may not be used in any manner that
 competes with the business of Gaussian, Inc. or will provide
 assistance to any competitor of Gaussian, Inc.  The licensee
 of this program is prohibited from giving any competitor of
 Gaussian, Inc. access to this program.  By using this program,
 the user acknowledges that Gaussian, Inc. is engaged in the
 business of creating and licensing software in the field of
 computational chemistry and represents and warrants to the
 licensee that it is not a competitor of Gaussian, Inc. and that
 it will not use this program in any manner prohibited above.
 ---------------------------------------------------------------
  

 Cite this work as:
 Gaussian 09, Revision A.02,
 M. J. Frisch, G. W. Trucks, H. B. Schlegel, G. E. Scuseria, 
 M. A. Robb, J. R. Cheeseman, G. Scalmani, V. Barone, B. Mennucci, 
 G. A. Petersson, H. Nakatsuji, M. Caricato, X. Li, H. P. Hratchian, 
 A. F. Izmaylov, J. Bloino, G. Zheng, J. L. Sonnenberg, M. Hada, 
 M. Ehara, K. Toyota, R. Fukuda, J. Hasegawa, M. Ishida, T. Nakajima, 
 Y. Honda, O. Kitao, H. Nakai, T. Vreven, J. A. Montgomery, Jr., 
 J. E. Peralta, F. Ogliaro, M. Bearpark, J. J. Heyd, E. Brothers, 
 K. N. Kudin, V. N. Staroverov, R. Kobayashi, J. Normand, 
 K. Raghavachari, A. Rendell, J. C. Burant, S. S. Iyengar, J. Tomasi, 
 M. Cossi, N. Rega, J. M. Millam, M. Klene, J. E. Knox, J. B. Cross, 
 V. Bakken, C. Adamo, J. Jaramillo, R. Gomperts, R. E. Stratmann, 
 O. Yazyev, A. J. Austin, R. Cammi, C. Pomelli, J. W. Ochterski, 
 R. L. Martin, K. Morokuma, V. G. Zakrzewski, G. A. Voth, 
 P. Salvador, J. J. Dannenberg, S. Dapprich, A. D. Daniels, 
 O. Farkas, J. B. Foresman, J. V. Ortiz, J. Cioslowski, 
 and D. J. Fox, Gaussian, Inc., Wallingford CT, 2009.
 
 ******************************************
 Gaussian 09:  EM64L-G09RevA.02 11-Jun-2009
                13-Jun-2023 
 ******************************************
 %Chk=an.chk
 %Nproc=6
 Will use up to    6 processors via shared memory.
 %Mem=15000Mb
 ----------------------------------------------------------------------
 #p wB97XD/GEN 6D Iop(6/7=3) Iop(9/40=14) scf(maxcyc=200,conver=7) nosy
 m Guess(Read,TCheck) GFInput Force
 ----------------------------------------------------------------------
 1/10=7,30=1,38=1/1,3;
 2/12=2,15=1,17=6,18=5,40=1/2;
 3/5=7,8=2,11=2,16=1,24=10,25=1,30=1,71=1,74=-58/1,2,3;
 4/5=102/1;
 5/5=2,6=7,7=200/2;
 6/7=3,8=2,9=2,10=2,28=1/1;
 7/29=1,30=1/1,2,3,16;
 1/10=7,30=1/3;
 99//99;
 Leave Link    1 at Tue Jun 13 17:02:29 2023, MaxMem= 1966080000 cpu:       0.3
 (Enter /local/g09-source/g09/l101.exe)
 -------
 Comment
 -------
 Symbolic Z-matrix:
 Charge = -1 Multiplicity = 2
 C                    -0.03812  -0.08972  -0.01123 
 C                     0.11041   0.22652   1.29959 
 H                     1.13871  -0.10273   1.87219 
 H                    -0.59097   0.9309    2.06747 
 
 NAtoms=      4 NQM=      4 NQMF=      0 NMic=      0 NMicF=      0 NTot=      4.
                    Isotopes and Nuclear Properties:
 (Nuclear quadrupole moments (NQMom) in fm**2, nuclear magnetic moments (NMagM)
  in nuclear magnetons)

  Atom         1           2           3           4
 IAtWgt=          12          12           1           1
 AtmWgt=  12.0000000  12.0000000   1.0078250   1.0078250
 NucSpn=           0           0           1           1
 AtZEff=   0.0000000   0.0000000   0.0000000   0.0000000
 NQMom=    0.0000000   0.0000000   0.0000000   0.0000000
 NMagM=    0.0000000   0.0000000   2.7928460   2.7928460
 Leave Link  101 at Tue Jun 13 17:02:30 2023, MaxMem= 1966080000 cpu:       0.7
 (Enter /local/g09-source/g09/l103.exe)

 GradGradGradGradGradGradGradGradGradGradGradGradGradGradGradGradGradGrad
 Berny optimization.
 Initialization pass.
 Trust Radius=3.00D-01 FncErr=1.00D-07 GrdErr=1.00D-07
 Number of steps in this run=   2 maximum allowed number of steps=   2.
 GradGradGradGradGradGradGradGradGradGradGradGradGradGradGradGradGradGrad

 Leave Link  103 at Tue Jun 13 17:02:30 2023, MaxMem= 1966080000 cpu:       0.1
 (Enter /local/g09-source/g09/l202.exe)
                          Input orientation:                          
 ---------------------------------------------------------------------
 Center     Atomic      Atomic             Coordinates (Angstroms)
 Number     Number       Type             X           Y           Z
 ---------------------------------------------------------------------
      1          6           0       -0.038123   -0.089716   -0.011232
      2          6           0        0.110405    0.226521    1.299589
      3          1           0        1.138708   -0.102726    1.872187
      4          1           0       -0.590971    0.930897    2.067473
 ---------------------------------------------------------------------
                    Distance matrix (angstroms):
                    1          2          3          4
     1  C    0.000000
     2  C    1.356584   0.000000
     3  H    2.220894   1.222162   0.000000
     4  H    2.380820   1.256073   2.024426   0.000000
 Symmetry turned off by external request.
 Stoichiometry    C2H2(1-,2)
 Framework group  C1[X(C2H2)]
 Deg. of freedom     6
 Full point group                 C1      NOp   1
 Rotational constants (GHZ):    246.6683774     34.4758503     30.2684465
 Leave Link  202 at Tue Jun 13 17:02:30 2023, MaxMem= 1966080000 cpu:       0.0
 (Enter /local/g09-source/g09/l301.exe)
 General basis read from cards:  (6D, 7F)
 Centers:   3  4
 S 4 1.0
     Exponent=  1.3010000000D+01 Coefficients=  1.9685000000D-02
     Exponent=  1.9620000000D+00 Coefficients=  1.3797700000D-01
     Exponent=  4.4460000000D-01 Coefficients=  4.7814800000D-01
     Exponent=  1.2200000000D-01 Coefficients=  5.0124000000D-01
 S 1 1.0
     Exponent=  1.2200000000D-01 Coefficients=  1.0000000000D+00
 S 1 1.0
     Exponent=  2.9740000000D-02 Coefficients=  1.0000000000D+00
 S 1 1.0
     Exponent=  7.2500000000D-03 Coefficients=  1.0000000000D+00
 P 1 1.0
     Exponent=  7.2700000000D-01 Coefficients=  1.0000000000D+00
 P 1 1.0
     Exponent=  1.4100000000D-01 Coefficients=  1.0000000000D+00
 P 1 1.0
     Exponent=  2.7300000000D-02 Coefficients=  1.0000000000D+00
 ****
 Centers:   1  2
 S 9 1.0
     Exponent=  6.6650000000D+03 Coefficients=  6.9200000000D-04
     Exponent=  1.0000000000D+03 Coefficients=  5.3290000000D-03
     Exponent=  2.2800000000D+02 Coefficients=  2.7077000000D-02
     Exponent=  6.4710000000D+01 Coefficients=  1.0171800000D-01
     Exponent=  2.1060000000D+01 Coefficients=  2.7474000000D-01
     Exponent=  7.4950000000D+00 Coefficients=  4.4856400000D-01
     Exponent=  2.7970000000D+00 Coefficients=  2.8507400000D-01
     Exponent=  5.2150000000D-01 Coefficients=  1.5204000000D-02
     Exponent=  1.5960000000D-01 Coefficients= -3.1910000000D-03
 S 9 1.0
     Exponent=  6.6650000000D+03 Coefficients= -1.4600000000D-04
     Exponent=  1.0000000000D+03 Coefficients= -1.1540000000D-03
     Exponent=  2.2800000000D+02 Coefficients= -5.7250000000D-03
     Exponent=  6.4710000000D+01 Coefficients= -2.3312000000D-02
     Exponent=  2.1060000000D+01 Coefficients= -6.3955000000D-02
     Exponent=  7.4950000000D+00 Coefficients= -1.4998100000D-01
     Exponent=  2.7970000000D+00 Coefficients= -1.2726200000D-01
     Exponent=  5.2150000000D-01 Coefficients=  5.4452900000D-01
     Exponent=  1.5960000000D-01 Coefficients=  5.8049600000D-01
 S 1 1.0
     Exponent=  1.5960000000D-01 Coefficients=  1.0000000000D+00
 S 1 1.0
     Exponent=  4.6900000000D-02 Coefficients=  1.0000000000D+00
 S 1 1.0
     Exponent=  1.3800000000D-02 Coefficients=  1.0000000000D+00
 P 4 1.0
     Exponent=  9.4390000000D+00 Coefficients=  3.8109000000D-02
     Exponent=  2.0020000000D+00 Coefficients=  2.0948000000D-01
     Exponent=  5.4560000000D-01 Coefficients=  5.0855700000D-01
     Exponent=  1.5170000000D-01 Coefficients=  4.6884200000D-01
 P 1 1.0
     Exponent=  1.5170000000D-01 Coefficients=  1.0000000000D+00
 P 1 1.0
     Exponent=  4.0410000000D-02 Coefficients=  1.0000000000D+00
 P 1 1.0
     Exponent=  1.0800000000D-02 Coefficients=  1.0000000000D+00
 D 1 1.0
     Exponent=  5.5000000000D-01 Coefficients=  1.0000000000D+00
 D 1 1.0
     Exponent=  1.5100000000D-01 Coefficients=  1.0000000000D+00
 D 1 1.0
     Exponent=  4.1500000000D-02 Coefficients=  1.0000000000D+00
 ****
 Ernie: Thresh=  0.10000D-02 Tol=  0.10000D-05 Strict=F.
 Ernie:  6 primitive shells out of 82 were deleted.
 AO basis set in the form of general basis input (Overlap normalization):
      1 0
 S   8 1.00       0.000000000000
      0.6665000000D+04  0.6911871665D-03
      0.1000000000D+04  0.5322577364D-02
      0.2280000000D+03  0.2704512777D-01
      0.6471000000D+02  0.1015883442D+00
      0.2106000000D+02  0.2743843617D+00
      0.7495000000D+01  0.4477328995D+00
      0.2797000000D+01  0.2843702133D+00
      0.5215000000D+00  0.1819701823D-01
 S   7 1.00       0.000000000000
      0.6665000000D+04  0.7733547404D-05
      0.2280000000D+03  0.2780721367D-03
      0.6471000000D+02 -0.2578756542D-02
      0.2106000000D+02 -0.8950876838D-02
      0.7495000000D+01 -0.1060588547D+00
      0.2797000000D+01 -0.1315176856D+00
      0.5215000000D+00  0.1099486598D+01
 S   1 1.00       0.000000000000
      0.1596000000D+00  0.1000000000D+01
 S   1 1.00       0.000000000000
      0.4690000000D-01  0.1000000000D+01
 S   1 1.00       0.000000000000
      0.1380000000D-01  0.1000000000D+01
 P   4 1.00       0.000000000000
      0.9439000000D+01  0.3810902127D-01
      0.2002000000D+01  0.2094801169D+00
      0.5456000000D+00  0.5085572839D+00
      0.1517000000D+00  0.4688422617D+00
 P   1 1.00       0.000000000000
      0.1517000000D+00  0.1000000000D+01
 P   1 1.00       0.000000000000
      0.4041000000D-01  0.1000000000D+01
 P   1 1.00       0.000000000000
      0.1080000000D-01  0.1000000000D+01
 D   1 1.00       0.000000000000
      0.5500000000D+00  0.1000000000D+01
 D   1 1.00       0.000000000000
      0.1510000000D+00  0.1000000000D+01
 D   1 1.00       0.000000000000
      0.4150000000D-01  0.1000000000D+01
 ****
      2 0
 S   8 1.00       0.000000000000
      0.6665000000D+04  0.6911871665D-03
      0.1000000000D+04  0.5322577364D-02
      0.2280000000D+03  0.2704512777D-01
      0.6471000000D+02  0.1015883442D+00
      0.2106000000D+02  0.2743843617D+00
      0.7495000000D+01  0.4477328995D+00
      0.2797000000D+01  0.2843702133D+00
      0.5215000000D+00  0.1819701823D-01
 S   7 1.00       0.000000000000
      0.6665000000D+04  0.7733547404D-05
      0.2280000000D+03  0.2780721367D-03
      0.6471000000D+02 -0.2578756542D-02
      0.2106000000D+02 -0.8950876838D-02
      0.7495000000D+01 -0.1060588547D+00
      0.2797000000D+01 -0.1315176856D+00
      0.5215000000D+00  0.1099486598D+01
 S   1 1.00       0.000000000000
      0.1596000000D+00  0.1000000000D+01
 S   1 1.00       0.000000000000
      0.4690000000D-01  0.1000000000D+01
 S   1 1.00       0.000000000000
      0.1380000000D-01  0.1000000000D+01
 P   4 1.00       0.000000000000
      0.9439000000D+01  0.3810902127D-01
      0.2002000000D+01  0.2094801169D+00
      0.5456000000D+00  0.5085572839D+00
      0.1517000000D+00  0.4688422617D+00
 P   1 1.00       0.000000000000
      0.1517000000D+00  0.1000000000D+01
 P   1 1.00       0.000000000000
      0.4041000000D-01  0.1000000000D+01
 P   1 1.00       0.000000000000
      0.1080000000D-01  0.1000000000D+01
 D   1 1.00       0.000000000000
      0.5500000000D+00  0.1000000000D+01
 D   1 1.00       0.000000000000
      0.1510000000D+00  0.1000000000D+01
 D   1 1.00       0.000000000000
      0.4150000000D-01  0.1000000000D+01
 ****
      3 0
 S   4 1.00       0.000000000000
      0.1301000000D+02  0.1968498999D-01
      0.1962000000D+01  0.1379769298D+00
      0.4446000000D+00  0.4781477569D+00
      0.1220000000D+00  0.5012397451D+00
 S   1 1.00       0.000000000000
      0.1220000000D+00  0.1000000000D+01
 S   1 1.00       0.000000000000
      0.2974000000D-01  0.1000000000D+01
 S   1 1.00       0.000000000000
      0.7250000000D-02  0.1000000000D+01
 P   1 1.00       0.000000000000
      0.7270000000D+00  0.1000000000D+01
 P   1 1.00       0.000000000000
      0.1410000000D+00  0.1000000000D+01
 P   1 1.00       0.000000000000
      0.2730000000D-01  0.1000000000D+01
 ****
      4 0
 S   4 1.00       0.000000000000
      0.1301000000D+02  0.1968498999D-01
      0.1962000000D+01  0.1379769298D+00
      0.4446000000D+00  0.4781477569D+00
      0.1220000000D+00  0.5012397451D+00
 S   1 1.00       0.000000000000
      0.1220000000D+00  0.1000000000D+01
 S   1 1.00       0.000000000000
      0.2974000000D-01  0.1000000000D+01
 S   1 1.00       0.000000000000
      0.7250000000D-02  0.1000000000D+01
 P   1 1.00       0.000000000000
      0.7270000000D+00  0.1000000000D+01
 P   1 1.00       0.000000000000
      0.1410000000D+00  0.1000000000D+01
 P   1 1.00       0.000000000000
      0.2730000000D-01  0.1000000000D+01
 ****

 Integral buffers will be    131072 words long.
 Raffenetti 2 integral format.
 Two-electron integral symmetry is turned off.
    96 basis functions,   146 primitive gaussians,    96 cartesian basis functions
     8 alpha electrons        7 beta electrons
       nuclear repulsion energy        22.1932140866 Hartrees.
 IExCor= 4639 DFT=T Ex+Corr=wB97XD ExCW=0 ScaHFX=  1.000000
 ScaDFX=  1.000000  1.000000  1.000000  1.000000 ScalE2=  1.000000  1.000000
 IRadAn=      0 IRanWt=     -1 IRanGd=            0 ICorTp=0
  HFx wShort=  0.000000 wLong=  0.200000 cFull=  0.222036 cShort=  0.000000 cLong=  0.777964
  DFx wShort=  0.000000 wLong=  0.200000 cFull=  0.000000 cShort=  0.000000 cLong=  1.000000
 NAtoms=    4 NActive=    4 NUniq=    4 SFac= 7.50D-01 NAtFMM=   80 NAOKFM=F Big=F
 R6Disp: Dispersion energy =        -0.0003142869 Hartrees.
 Nuclear repulsion after empirical dispersion term =       22.1928997997 Hartrees.
 Leave Link  301 at Tue Jun 13 17:02:30 2023, MaxMem= 1966080000 cpu:       0.4
 (Enter /local/g09-source/g09/l302.exe)
 NPDir=0 NMtPBC=     1 NCelOv=     1 NCel=       1 NClECP=     1 NCelD=      1
         NCelK=      1 NCelE2=     1 NClLst=     1 CellRange=     0.0.
 One-electron integrals computed using PRISM.
 NBasis=    96 RedAO= T  NBF=    96
 NBsUse=    95 1.00D-06 NBFU=    95
 Precomputing XC quadrature grid using
 IXCGrd= 2 IRadAn=           0 IRanWt=          -1 IRanGd=           0 AccXCQ= 1.00D-10.
 NRdTot=     266 NPtTot=       34180 NUsed=       36107 NTot=       36139
 NSgBfM=    96    96    96    96    96 NAtAll=     4     4.
 Leave Link  302 at Tue Jun 13 17:02:30 2023, MaxMem= 1966080000 cpu:       1.2
 (Enter /local/g09-source/g09/l303.exe)
 DipDrv:  MaxL=1.
 Leave Link  303 at Tue Jun 13 17:02:30 2023, MaxMem= 1966080000 cpu:       0.3
 (Enter /local/g09-source/g09/l401.exe)
 Initial guess read from the checkpoint file:  an.chk
 B after Tr=    -0.000078    0.000327    0.000250
         Rot=    1.000000   -0.000023    0.000246   -0.000025 Ang=   0.03 deg.
 Guess basis will be translated and rotated to current coordinates.
 Initial guess <Sx>= 0.0000 <Sy>= 0.0000 <Sz>= 0.5000 <S**2>= 0.7629 S= 0.5064
 Leave Link  401 at Tue Jun 13 17:02:30 2023, MaxMem= 1966080000 cpu:       0.8
 (Enter /local/g09-source/g09/l502.exe)
 UHF open shell SCF:
 Requested convergence on RMS density matrix=1.00D-07 within 200 cycles.
 Requested convergence on MAX density matrix=1.00D-05.
 Requested convergence on             energy=1.00D-05.
 No special actions if energy rises.
 Using DIIS extrapolation, IDIIS=  1040.
 Two-electron integral symmetry not used.
        36058 words used for storage of precomputed grid.
 IEnd=      106988 IEndB=      106988 NGot=  1966080000 MDV=  1966022725
 LenX=  1966022725 LenY=  1966013068
 Fock matrices will be formed incrementally for  20 cycles.

 Cycle   1  Pass 1  IDiag  1:
 FoFJK:  IHMeth= 1 ICntrl=     0 DoSepK=T KAlg= 1 I1Cent= 0 FoldK=F
 FoFCou: FMM=F IPFlag=           0 FMFlag=      100000 FMFlg1=           0
         NFxFlg=           0 DoJE=T BraDBF=F KetDBF=F FulRan=T
         Omega=  0.000000  0.000000  1.000000  0.000000  0.000000 ICntrl=     500 IOpCl=  0
         NMat0=    1 NMatS0=    1 NMatT0=    0 NMatD0=    1 NMtDS0=    0 NMtDT0=    0
         I1Cent=           0 NGrid=           0.
 Symmetry not used in FoFCou.
 E= -77.2480238918565    
 DIIS: error= 4.75D-04 at cycle   1 NSaved=   1.
 NSaved= 1 IEnMin= 1 EnMin= -77.2480238918565     IErMin= 1 ErrMin= 4.75D-04
 ErrMax= 4.75D-04 EMaxC= 1.00D-01 BMatC= 1.52D-04 BMatP= 1.52D-04
 IDIUse=3 WtCom= 9.95D-01 WtEn= 4.75D-03
 Coeff-Com:  0.100D+01
 Coeff-En:   0.100D+01
 Coeff:      0.100D+01
 Gap=     0.093 Goal=   None    Shift=    0.000
 Gap=     0.183 Goal=   None    Shift=    0.000
 RMSDP=8.09D-04 MaxDP=1.28D-02              OVMax= 3.81D-03

 Cycle   2  Pass 1  IDiag  1:
 RMSU=  5.51D-04    CP:  1.01D+00
 FoFJK:  IHMeth= 1 ICntrl=     0 DoSepK=T KAlg= 1 I1Cent= 0 FoldK=F
 E= -77.2480783448197     Delta-E=       -0.000054452963 Rises=F Damp=F
 DIIS: error= 2.73D-04 at cycle   2 NSaved=   2.
 NSaved= 2 IEnMin= 2 EnMin= -77.2480783448197     IErMin= 2 ErrMin= 2.73D-04
 ErrMax= 2.73D-04 EMaxC= 1.00D-01 BMatC= 1.64D-05 BMatP= 1.52D-04
 IDIUse=3 WtCom= 9.97D-01 WtEn= 2.73D-03
 Coeff-Com:  0.910D-01 0.909D+00
 Coeff-En:   0.000D+00 0.100D+01
 Coeff:      0.908D-01 0.909D+00
 Gap=     0.091 Goal=   None    Shift=    0.000
 Gap=     0.181 Goal=   None    Shift=    0.000
 RMSDP=1.24D-04 MaxDP=2.54D-03 DE=-5.45D-05 OVMax= 3.07D-03

 Cycle   3  Pass 1  IDiag  1:
 RMSU=  8.15D-05    CP:  1.01D+00  1.09D+00
 FoFJK:  IHMeth= 1 ICntrl=     0 DoSepK=T KAlg= 1 I1Cent= 0 FoldK=F
 E= -77.2480848737377     Delta-E=       -0.000006528918 Rises=F Damp=F
 DIIS: error= 1.34D-04 at cycle   3 NSaved=   3.
 NSaved= 3 IEnMin= 3 EnMin= -77.2480848737377     IErMin= 3 ErrMin= 1.34D-04
 ErrMax= 1.34D-04 EMaxC= 1.00D-01 BMatC= 7.04D-06 BMatP= 1.64D-05
 IDIUse=3 WtCom= 9.99D-01 WtEn= 1.34D-03
 Coeff-Com: -0.609D-01 0.367D+00 0.694D+00
 Coeff-En:   0.000D+00 0.000D+00 0.100D+01
 Coeff:     -0.608D-01 0.367D+00 0.694D+00
 Gap=     0.091 Goal=   None    Shift=    0.000
 Gap=     0.182 Goal=   None    Shift=    0.000
 RMSDP=4.48D-05 MaxDP=9.10D-04 DE=-6.53D-06 OVMax= 1.30D-03

 Cycle   4  Pass 1  IDiag  1:
 RMSU=  2.64D-05    CP:  1.01D+00  1.12D+00  9.84D-01
 FoFJK:  IHMeth= 1 ICntrl=     0 DoSepK=T KAlg= 1 I1Cent= 0 FoldK=F
 E= -77.2480880964136     Delta-E=       -0.000003222676 Rises=F Damp=F
 DIIS: error= 6.25D-05 at cycle   4 NSaved=   4.
 NSaved= 4 IEnMin= 4 EnMin= -77.2480880964136     IErMin= 4 ErrMin= 6.25D-05
 ErrMax= 6.25D-05 EMaxC= 1.00D-01 BMatC= 5.86D-07 BMatP= 7.04D-06
 IDIUse=1 WtCom= 1.00D+00 WtEn= 0.00D+00
 Coeff-Com: -0.185D-01-0.130D-01 0.136D+00 0.895D+00
 Coeff:     -0.185D-01-0.130D-01 0.136D+00 0.895D+00
 Gap=     0.091 Goal=   None    Shift=    0.000
 Gap=     0.182 Goal=   None    Shift=    0.000
 RMSDP=2.21D-05 MaxDP=4.18D-04 DE=-3.22D-06 OVMax= 1.24D-03

 Cycle   5  Pass 1  IDiag  1:
 RMSU=  1.17D-05    CP:  1.01D+00  1.12D+00  1.12D+00  1.24D+00
 FoFJK:  IHMeth= 1 ICntrl=     0 DoSepK=T KAlg= 1 I1Cent= 0 FoldK=F
 E= -77.2480888534238     Delta-E=       -0.000000757010 Rises=F Damp=F
 DIIS: error= 3.28D-05 at cycle   5 NSaved=   5.
 NSaved= 5 IEnMin= 5 EnMin= -77.2480888534238     IErMin= 5 ErrMin= 3.28D-05
 ErrMax= 3.28D-05 EMaxC= 1.00D-01 BMatC= 2.55D-07 BMatP= 5.86D-07
 IDIUse=1 WtCom= 1.00D+00 WtEn= 0.00D+00
 Coeff-Com:  0.884D-02-0.102D+00-0.124D+00 0.365D+00 0.852D+00
 Coeff:      0.884D-02-0.102D+00-0.124D+00 0.365D+00 0.852D+00
 Gap=     0.091 Goal=   None    Shift=    0.000
 Gap=     0.182 Goal=   None    Shift=    0.000
 RMSDP=1.67D-05 MaxDP=2.51D-04 DE=-7.57D-07 OVMax= 1.04D-03

 Cycle   6  Pass 1  IDiag  1:
 RMSU=  7.62D-06    CP:  1.01D+00  1.12D+00  1.20D+00  1.45D+00  1.46D+00
 FoFJK:  IHMeth= 1 ICntrl=     0 DoSepK=T KAlg= 1 I1Cent= 0 FoldK=F
 E= -77.2480892436630     Delta-E=       -0.000000390239 Rises=F Damp=F
 DIIS: error= 2.24D-05 at cycle   6 NSaved=   6.
 NSaved= 6 IEnMin= 6 EnMin= -77.2480892436630     IErMin= 6 ErrMin= 2.24D-05
 ErrMax= 2.24D-05 EMaxC= 1.00D-01 BMatC= 4.91D-08 BMatP= 2.55D-07
 IDIUse=1 WtCom= 1.00D+00 WtEn= 0.00D+00
 Coeff-Com:  0.669D-02-0.688D-02-0.617D-01-0.254D+00 0.101D+00 0.122D+01
 Coeff:      0.669D-02-0.688D-02-0.617D-01-0.254D+00 0.101D+00 0.122D+01
 Gap=     0.091 Goal=   None    Shift=    0.000
 Gap=     0.182 Goal=   None    Shift=    0.000
 RMSDP=1.51D-05 MaxDP=3.62D-04 DE=-3.90D-07 OVMax= 1.05D-03

 Cycle   7  Pass 1  IDiag  1:
 RMSU=  5.67D-06    CP:  1.01D+00  1.12D+00  1.25D+00  1.59D+00  2.06D+00
                    CP:  1.74D+00
 FoFJK:  IHMeth= 1 ICntrl=     0 DoSepK=T KAlg= 1 I1Cent= 0 FoldK=F
 E= -77.2480894299804     Delta-E=       -0.000000186317 Rises=F Damp=F
 DIIS: error= 1.09D-05 at cycle   7 NSaved=   7.
 NSaved= 7 IEnMin= 7 EnMin= -77.2480894299804     IErMin= 7 ErrMin= 1.09D-05
 ErrMax= 1.09D-05 EMaxC= 1.00D-01 BMatC= 7.94D-09 BMatP= 4.91D-08
 IDIUse=1 WtCom= 1.00D+00 WtEn= 0.00D+00
 Coeff-Com: -0.284D-02 0.232D-01 0.327D-01-0.572D-01-0.168D+00-0.129D+00
 Coeff-Com:  0.130D+01
 Coeff:     -0.284D-02 0.232D-01 0.327D-01-0.572D-01-0.168D+00-0.129D+00
 Coeff:      0.130D+01
 Gap=     0.091 Goal=   None    Shift=    0.000
 Gap=     0.182 Goal=   None    Shift=    0.000
 RMSDP=1.07D-05 MaxDP=3.77D-04 DE=-1.86D-07 OVMax= 6.16D-04

 Cycle   8  Pass 1  IDiag  1:
 RMSU=  2.80D-06    CP:  1.01D+00  1.12D+00  1.27D+00  1.61D+00  2.31D+00
                    CP:  2.29D+00  2.17D+00
 FoFJK:  IHMeth= 1 ICntrl=     0 DoSepK=T KAlg= 1 I1Cent= 0 FoldK=F
 E= -77.2480894782955     Delta-E=       -0.000000048315 Rises=F Damp=F
 DIIS: error= 5.28D-06 at cycle   8 NSaved=   8.
 NSaved= 8 IEnMin= 8 EnMin= -77.2480894782955     IErMin= 8 ErrMin= 5.28D-06
 ErrMax= 5.28D-06 EMaxC= 1.00D-01 BMatC= 1.71D-09 BMatP= 7.94D-09
 IDIUse=1 WtCom= 1.00D+00 WtEn= 0.00D+00
 Coeff-Com: -0.761D-03-0.256D-02 0.653D-02 0.550D-01 0.126D-01-0.214D+00
 Coeff-Com: -0.270D+00 0.141D+01
 Coeff:     -0.761D-03-0.256D-02 0.653D-02 0.550D-01 0.126D-01-0.214D+00
 Coeff:     -0.270D+00 0.141D+01
 Gap=     0.091 Goal=   None    Shift=    0.000
 Gap=     0.182 Goal=   None    Shift=    0.000
 RMSDP=9.52D-06 MaxDP=3.56D-04 DE=-4.83D-08 OVMax= 3.83D-04

 Cycle   9  Pass 1  IDiag  1:
 RMSU=  2.79D-06    CP:  1.01D+00  1.12D+00  1.28D+00  1.60D+00  2.39D+00
                    CP:  2.62D+00  3.00D+00  2.35D+00
 FoFJK:  IHMeth= 1 ICntrl=     0 DoSepK=T KAlg= 1 I1Cent= 0 FoldK=F
 E= -77.2480894922163     Delta-E=       -0.000000013921 Rises=F Damp=F
 DIIS: error= 2.28D-06 at cycle   9 NSaved=   9.
 NSaved= 9 IEnMin= 9 EnMin= -77.2480894922163     IErMin= 9 ErrMin= 2.28D-06
 ErrMax= 2.28D-06 EMaxC= 1.00D-01 BMatC= 3.72D-10 BMatP= 1.71D-09
 IDIUse=1 WtCom= 1.00D+00 WtEn= 0.00D+00
 Coeff-Com:  0.894D-03-0.425D-02-0.963D-02-0.803D-02 0.264D-01 0.108D+00
 Coeff-Com: -0.150D+00-0.632D+00 0.167D+01
 Coeff:      0.894D-03-0.425D-02-0.963D-02-0.803D-02 0.264D-01 0.108D+00
 Coeff:     -0.150D+00-0.632D+00 0.167D+01
 Gap=     0.091 Goal=   None    Shift=    0.000
 Gap=     0.182 Goal=   None    Shift=    0.000
 RMSDP=8.49D-06 MaxDP=3.24D-04 DE=-1.39D-08 OVMax= 2.36D-04

 Cycle  10  Pass 1  IDiag  1:
 RMSU=  2.68D-06    CP:  1.01D+00  1.12D+00  1.28D+00  1.57D+00  2.39D+00
                    CP:  2.82D+00  3.00D+00  3.00D+00  3.00D+00
 FoFJK:  IHMeth= 1 ICntrl=     0 DoSepK=T KAlg= 1 I1Cent= 0 FoldK=F
 E= -77.2480894957307     Delta-E=       -0.000000003514 Rises=F Damp=F
 DIIS: error= 6.81D-07 at cycle  10 NSaved=  10.
 NSaved=10 IEnMin=10 EnMin= -77.2480894957307     IErMin=10 ErrMin= 6.81D-07
 ErrMax= 6.81D-07 EMaxC= 1.00D-01 BMatC= 5.51D-11 BMatP= 3.72D-10
 IDIUse=1 WtCom= 1.00D+00 WtEn= 0.00D+00
 Coeff-Com: -0.294D-03 0.270D-02 0.349D-02-0.619D-02-0.183D-01-0.993D-02
 Coeff-Com:  0.132D+00 0.629D-02-0.761D+00 0.165D+01
 Coeff:     -0.294D-03 0.270D-02 0.349D-02-0.619D-02-0.183D-01-0.993D-02
 Coeff:      0.132D+00 0.629D-02-0.761D+00 0.165D+01
 Gap=     0.091 Goal=   None    Shift=    0.000
 Gap=     0.182 Goal=   None    Shift=    0.000
 RMSDP=4.92D-06 MaxDP=1.80D-04 DE=-3.51D-09 OVMax= 9.37D-05

 Cycle  11  Pass 1  IDiag  1:
 RMSU=  3.42D-06    CP:  1.01D+00  1.12D+00  1.27D+00  1.54D+00  2.37D+00
                    CP:  2.89D+00  3.00D+00  3.00D+00  3.00D+00  1.93D+00
 FoFJK:  IHMeth= 1 ICntrl=     0 DoSepK=T KAlg= 1 I1Cent= 0 FoldK=F
 E= -77.2480894961700     Delta-E=       -0.000000000439 Rises=F Damp=F
 DIIS: error= 1.93D-07 at cycle  11 NSaved=  11.
 NSaved=11 IEnMin=11 EnMin= -77.2480894961700     IErMin=11 ErrMin= 1.93D-07
 ErrMax= 1.93D-07 EMaxC= 1.00D-01 BMatC= 6.31D-12 BMatP= 5.51D-11
 IDIUse=1 WtCom= 1.00D+00 WtEn= 0.00D+00
 Coeff-Com:  0.252D-04-0.726D-03-0.368D-03 0.333D-02 0.533D-02-0.859D-02
 Coeff-Com: -0.381D-01 0.618D-01 0.168D+00-0.761D+00 0.157D+01
 Coeff:      0.252D-04-0.726D-03-0.368D-03 0.333D-02 0.533D-02-0.859D-02
 Coeff:     -0.381D-01 0.618D-01 0.168D+00-0.761D+00 0.157D+01
 Gap=     0.091 Goal=   None    Shift=    0.000
 Gap=     0.182 Goal=   None    Shift=    0.000
 RMSDP=1.49D-06 MaxDP=5.44D-05 DE=-4.39D-10 OVMax= 2.11D-05

 Cycle  12  Pass 1  IDiag  1:
 RMSU=  6.98D-07    CP:  1.01D+00  1.12D+00  1.27D+00  1.53D+00  2.35D+00
                    CP:  2.89D+00  3.00D+00  3.00D+00  3.00D+00  2.12D+00
                    CP:  1.27D+00
 FoFJK:  IHMeth= 1 ICntrl=     0 DoSepK=T KAlg= 1 I1Cent= 0 FoldK=F
 E= -77.2480894962048     Delta-E=       -0.000000000035 Rises=F Damp=F
 DIIS: error= 8.76D-08 at cycle  12 NSaved=  12.
 NSaved=12 IEnMin=12 EnMin= -77.2480894962048     IErMin=12 ErrMin= 8.76D-08
 ErrMax= 8.76D-08 EMaxC= 1.00D-01 BMatC= 1.12D-12 BMatP= 6.31D-12
 IDIUse=1 WtCom= 1.00D+00 WtEn= 0.00D+00
 Coeff-Com:  0.341D-04-0.155D-03-0.366D-03-0.947D-04 0.947D-03 0.427D-02
 Coeff-Com: -0.595D-02-0.280D-01 0.755D-01-0.200D-01-0.554D+00 0.153D+01
 Coeff:      0.341D-04-0.155D-03-0.366D-03-0.947D-04 0.947D-03 0.427D-02
 Coeff:     -0.595D-02-0.280D-01 0.755D-01-0.200D-01-0.554D+00 0.153D+01
 Gap=     0.091 Goal=   None    Shift=    0.000
 Gap=     0.182 Goal=   None    Shift=    0.000
 RMSDP=6.42D-07 MaxDP=2.47D-05 DE=-3.48D-11 OVMax= 8.43D-06

 Cycle  13  Pass 1  IDiag  1:
 RMSU=  1.24D-07    CP:  1.01D+00  1.12D+00  1.27D+00  1.52D+00  2.35D+00
                    CP:  2.87D+00  3.00D+00  3.00D+00  3.00D+00  2.10D+00
                    CP:  1.29D+00  1.76D+00
 FoFJK:  IHMeth= 1 ICntrl=     0 DoSepK=T KAlg= 1 I1Cent= 0 FoldK=F
 E= -77.2480894962103     Delta-E=       -0.000000000005 Rises=F Damp=F
 DIIS: error= 2.99D-08 at cycle  13 NSaved=  13.
 NSaved=13 IEnMin=13 EnMin= -77.2480894962103     IErMin=13 ErrMin= 2.99D-08
 ErrMax= 2.99D-08 EMaxC= 1.00D-01 BMatC= 1.79D-13 BMatP= 1.12D-12
 IDIUse=1 WtCom= 1.00D+00 WtEn= 0.00D+00
 Coeff-Com: -0.167D-04 0.189D-03 0.184D-03-0.647D-03-0.127D-02 0.390D-03
 Coeff-Com:  0.933D-02-0.522D-02-0.483D-01 0.141D+00-0.134D+00-0.440D+00
 Coeff-Com:  0.148D+01
 Coeff:     -0.167D-04 0.189D-03 0.184D-03-0.647D-03-0.127D-02 0.390D-03
 Coeff:      0.933D-02-0.522D-02-0.483D-01 0.141D+00-0.134D+00-0.440D+00
 Coeff:      0.148D+01
 Gap=     0.091 Goal=   None    Shift=    0.000
 Gap=     0.182 Goal=   None    Shift=    0.000
 RMSDP=4.37D-07 MaxDP=1.73D-05 DE=-5.49D-12 OVMax= 3.50D-06

 Cycle  14  Pass 1  IDiag  1:
 RMSU=  2.74D-08    CP:  1.01D+00  1.12D+00  1.27D+00  1.52D+00  2.35D+00
                    CP:  2.86D+00  3.00D+00  3.00D+00  3.00D+00  2.03D+00
                    CP:  1.23D+00  2.11D+00  2.00D+00
 FoFJK:  IHMeth= 1 ICntrl=     0 DoSepK=T KAlg= 1 I1Cent= 0 FoldK=F
 E= -77.2480894962115     Delta-E=       -0.000000000001 Rises=F Damp=F
 DIIS: error= 7.47D-09 at cycle  14 NSaved=  14.
 NSaved=14 IEnMin=14 EnMin= -77.2480894962115     IErMin=14 ErrMin= 7.47D-09
 ErrMax= 7.47D-09 EMaxC= 1.00D-01 BMatC= 2.24D-14 BMatP= 1.79D-13
 IDIUse=1 WtCom= 1.00D+00 WtEn= 0.00D+00
 Coeff-Com: -0.310D-05 0.807D-05 0.338D-04 0.356D-04-0.553D-04-0.483D-03
 Coeff-Com:  0.237D-03 0.322D-02-0.433D-02-0.976D-02 0.786D-01-0.147D+00
 Coeff-Com: -0.163D+00 0.124D+01
 Coeff:     -0.310D-05 0.807D-05 0.338D-04 0.356D-04-0.553D-04-0.483D-03
 Coeff:      0.237D-03 0.322D-02-0.433D-02-0.976D-02 0.786D-01-0.147D+00
 Coeff:     -0.163D+00 0.124D+01
 Gap=     0.091 Goal=   None    Shift=    0.000
 Gap=     0.182 Goal=   None    Shift=    0.000
 RMSDP=1.87D-07 MaxDP=7.66D-06 DE=-1.25D-12 OVMax= 1.04D-06

 Cycle  15  Pass 1  IDiag  1:
 RMSU=  5.99D-09    CP:  1.01D+00  1.12D+00  1.27D+00  1.52D+00  2.35D+00
                    CP:  2.86D+00  3.00D+00  3.00D+00  3.00D+00  1.99D+00
                    CP:  1.20D+00  2.19D+00  2.38D+00  1.92D+00
 FoFJK:  IHMeth= 1 ICntrl=     0 DoSepK=T KAlg= 1 I1Cent= 0 FoldK=F
 E= -77.2480894962115     Delta-E=        0.000000000000 Rises=F Damp=F
 DIIS: error= 3.28D-09 at cycle  15 NSaved=  15.
 NSaved=15 IEnMin=14 EnMin= -77.2480894962115     IErMin=15 ErrMin= 3.28D-09
 ErrMax= 3.28D-09 EMaxC= 1.00D-01 BMatC= 3.92D-15 BMatP= 2.24D-14
 IDIUse=1 WtCom= 1.00D+00 WtEn= 0.00D+00
 Coeff-Com:  0.314D-05-0.325D-04-0.350D-04 0.111D-03 0.203D-03 0.182D-04
 Coeff-Com: -0.159D-02 0.242D-03 0.962D-02-0.243D-01 0.154D-01 0.998D-01
 Coeff-Com: -0.251D+00-0.162D+00 0.131D+01
 Coeff:      0.314D-05-0.325D-04-0.350D-04 0.111D-03 0.203D-03 0.182D-04
 Coeff:     -0.159D-02 0.242D-03 0.962D-02-0.243D-01 0.154D-01 0.998D-01
 Coeff:     -0.251D+00-0.162D+00 0.131D+01
 Gap=     0.091 Goal=   None    Shift=    0.000
 Gap=     0.182 Goal=   None    Shift=    0.000
 RMSDP=7.72D-08 MaxDP=2.97D-06 DE= 5.68D-14 OVMax= 4.18D-07

 SCF Done:  E(UwB97XD) =  -77.2480894962     A.U. after   15 cycles
             Convg  =    0.7724D-07             -V/T =  2.0124
 <Sx>= 0.0000 <Sy>= 0.0000 <Sz>= 0.5000 <S**2>= 0.7627 S= 0.5063
 <L.S>= 0.000000000000E+00
 KE= 7.630499939184D+01 PE=-2.267061940570D+02 EE= 5.096020536922D+01
 Annihilation of the first spin contaminant:
 S**2 before annihilation     0.7627,   after     0.7501
 Leave Link  502 at Tue Jun 13 17:02:45 2023, MaxMem= 1966080000 cpu:      88.6
 (Enter /local/g09-source/g09/l601.exe)
 Copying SCF densities to generalized density rwf, IOpCl= 1 IROHF=0.

 **********************************************************************

            Population analysis using the SCF density.

 **********************************************************************

 Alpha  occ. eigenvalues --  -10.09234 -10.06608  -0.59415  -0.36835  -0.26606
 Alpha  occ. eigenvalues --   -0.13138  -0.11390  -0.02142
 Alpha virt. eigenvalues --    0.06987   0.07212   0.08666   0.10368   0.10736
 Alpha virt. eigenvalues --    0.11080   0.12125   0.12724   0.12897   0.15853
 Alpha virt. eigenvalues --    0.17359   0.17871   0.19156   0.19763   0.19936
 Alpha virt. eigenvalues --    0.20668   0.20995   0.23244   0.27044   0.27139
 Alpha virt. eigenvalues --    0.28798   0.30358   0.30848   0.30896   0.32084
 Alpha virt. eigenvalues --    0.32484   0.33235   0.33781   0.34151   0.34710
 Alpha virt. eigenvalues --    0.35557   0.36296   0.37233   0.38333   0.39640
 Alpha virt. eigenvalues --    0.40708   0.46478   0.49764   0.51022   0.53377
 Alpha virt. eigenvalues --    0.60108   0.61400   0.62716   0.66558   0.68028
 Alpha virt. eigenvalues --    0.70148   0.71434   0.75860   0.78317   0.79780
 Alpha virt. eigenvalues --    0.80444   0.83517   0.87132   0.88071   0.88966
 Alpha virt. eigenvalues --    0.90229   0.91044   0.94616   1.01271   1.06259
 Alpha virt. eigenvalues --    1.12702   1.12837   1.18679   1.31199   1.43836
 Alpha virt. eigenvalues --    1.57505   1.65931   1.68266   1.70651   1.79653
 Alpha virt. eigenvalues --    1.82345   1.85013   1.95379   1.96034   1.97599
 Alpha virt. eigenvalues --    2.02320   2.21958   2.23792   2.31217   2.33488
 Alpha virt. eigenvalues --    2.36880   2.55820   2.69620   2.79630   2.90626
 Alpha virt. eigenvalues --    5.37543   5.82066
  Beta  occ. eigenvalues --  -10.09443 -10.05593  -0.57607  -0.34560  -0.24768
  Beta  occ. eigenvalues --   -0.10918  -0.10426
  Beta virt. eigenvalues --    0.07818   0.07955   0.09598   0.10956   0.11580
  Beta virt. eigenvalues --    0.12775   0.12825   0.14146   0.14330   0.16773
  Beta virt. eigenvalues --    0.18964   0.19306   0.20610   0.20885   0.21081
  Beta virt. eigenvalues --    0.21543   0.22250   0.23980   0.25065   0.27201
  Beta virt. eigenvalues --    0.27613   0.29264   0.30495   0.31040   0.31510
  Beta virt. eigenvalues --    0.32312   0.32906   0.33679   0.34408   0.34603
  Beta virt. eigenvalues --    0.35225   0.36248   0.36516   0.38414   0.38757
  Beta virt. eigenvalues --    0.40156   0.41779   0.47249   0.50297   0.51238
  Beta virt. eigenvalues --    0.55372   0.60538   0.61616   0.62761   0.66974
  Beta virt. eigenvalues --    0.68434   0.70254   0.72145   0.75545   0.78403
  Beta virt. eigenvalues --    0.80583   0.81131   0.83941   0.87915   0.88226
  Beta virt. eigenvalues --    0.89082   0.91067   0.91873   0.95616   1.01623
  Beta virt. eigenvalues --    1.06467   1.13419   1.15540   1.19026   1.31474
  Beta virt. eigenvalues --    1.44403   1.58065   1.66479   1.68965   1.71469
  Beta virt. eigenvalues --    1.82108   1.85562   1.89204   1.96746   1.97510
  Beta virt. eigenvalues --    1.98814   2.03165   2.23085   2.24974   2.32155
  Beta virt. eigenvalues --    2.34900   2.37550   2.56928   2.71166   2.80556
  Beta virt. eigenvalues --    2.91707   5.39707   5.81981
     Alpha Molecular Orbital Coefficients:
                           1         2         3         4         5
                           O         O         O         O         O
     Eigenvalues --  -.10092342901310E+02 -.10066076848049E+02 -.59415454655444E+00 -.36835095204394E+00 -.26606003316433E+00
   1 1   C  1S       0.15416954208361E-01 0.99811596992579E+00 -.13754311545229E+00 -.12864366602495E+00 0.75888431062723E-02
   2        2S       0.57136665741353E-03 0.12876794491138E-01 0.26671965491358E+00 0.26337908755476E+00 -.15961938252429E-01
   3        3S       -.10505390945910E-01 -.11560470620710E-01 0.16529797536551E+00 0.59356293375789E+00 -.87332276406211E-01
   4        4S       0.12982365435534E-01 0.21120391631007E-02 0.74806068146484E-01 0.67069515282998E-01 -.16445715390236E-01
   5        5S       0.22392748369469E-02 -.13319250546386E-01 -.48111059404962E-01 -.16755553276492E-01 -.18088785341373E-01
   6        6PX      0.93293857236450E-04 0.29881262940136E-03 0.32450436388941E-01 0.44008277929194E-02 0.23969563902476E+00
   7        6PY      0.17683202670014E-03 0.73170238592951E-03 0.58136050208852E-01 0.19605537105052E-01 -.13065141823175E+00
   8        6PZ      0.73705440101970E-03 0.30203265875703E-02 0.24711039010601E+00 0.88226483494435E-01 0.92531371574698E-02
   9        7PX      -.66898592190522E-03 -.13928874775332E-02 -.86676679528099E-02 -.41201811525146E-02 -.85717823981105E-01
  10        7PY      -.11138169669331E-02 -.25883482478979E-02 -.33441520840594E-01 0.33421956464712E-01 0.41586865016577E-01
  11        7PZ      -.51167209909424E-02 -.11360341583042E-01 -.12546140531295E+00 0.10935324097098E+00 -.26690839059073E-01
  12        8PX      -.11717704674093E-03 0.40833365149787E-03 0.14425439043857E-02 0.42591300807813E-01 -.73051011906733E-02
  13        8PY      0.59375394898039E-03 0.55410230376553E-03 -.83748431336714E-02 -.35634941276897E-01 -.87652002245805E-03
  14        8PZ      0.30154325911998E-02 0.27017152196097E-02 -.17535254061724E-01 0.12178615112074E-01 -.76789452239080E-02
  15        9PX      0.17270362998383E-03 -.69925894034623E-04 -.14123404135481E-02 0.45835875665089E-03 0.17920189212074E-02
  16        9PY      0.72813075196408E-04 -.20473802523873E-03 -.15541775911643E-02 -.13025331234711E-02 -.21792980847055E-02
  17        9PZ      0.14899461144909E-03 -.95099309210086E-03 -.62502002400241E-02 -.38244454166330E-02 -.25374485554597E-02
  18       10XX      -.84982924668869E-04 -.66011302723290E-02 -.79313127186580E-02 -.26746780934991E-02 0.36298199844858E-02
  19       10YY      -.87661819093103E-04 -.67913132797836E-02 -.11666005549977E-01 -.66907252005088E-02 -.42215335121414E-02
  20       10ZZ      -.54815015614064E-04 -.61808816173021E-02 0.11188959617703E-01 -.88828872647188E-02 0.15665719696619E-02
  21       10XY      -.71006680423909E-05 -.17676819545042E-03 -.30467931908490E-02 -.42008133847524E-02 0.32655392827151E-02
  22       10XZ      -.40684975755005E-05 0.12019580562272E-03 0.46250271695680E-02 -.10492243046204E-02 0.18459362932027E-01
  23       10YZ      0.55386495431043E-05 0.19145249471203E-03 0.65735311497294E-02 -.38136955232436E-03 -.96454127214523E-02
  24       11XX      -.73778434739737E-03 0.11460339074309E-02 -.15387107080977E-01 -.18179283366992E-01 -.49551680683526E-02
  25       11YY      -.70269317132569E-03 0.12092651508809E-02 -.20487031237607E-01 -.97323216298364E-02 0.10086964346812E-02
  26       11ZZ      -.15157533292173E-02 -.19629974805784E-02 -.37251515942586E-01 0.18348670014937E-01 -.47124213702328E-02
  27       11XY      0.55512737260840E-04 0.63630124652344E-04 -.23729897039121E-02 0.41757958464624E-02 -.29722770371352E-02
  28       11XZ      -.85390434373856E-04 -.49541048659504E-03 0.11339753743706E-02 -.39339052024117E-02 -.18925756738160E-01
  29       11YZ      -.20537208891902E-03 -.88552775934466E-03 -.65263471679408E-02 0.10568627813321E-01 0.10879755230614E-01
  30       12XX      -.95520127020819E-03 0.27947414559705E-02 -.69843245008369E-02 -.60928059363102E-02 -.33380172961365E-02
  31       12YY      -.93860705934988E-03 0.27270645637633E-02 -.37794243334513E-02 -.17465817169447E-01 0.28890500213070E-02
  32       12ZZ      -.58104469099015E-03 0.35031223610329E-02 -.96780506773192E-02 -.50712273348065E-02 -.12785987020163E-02
  33       12XY      -.23702020564145E-04 -.46305007809013E-04 0.32997528347669E-02 -.30683984958532E-02 0.79029337865555E-03
  34       12XZ      -.59724699095125E-04 0.15027837976201E-03 -.10850352263274E-02 0.13526114435040E-01 -.58332043247199E-02
  35       12YZ      0.58110016547272E-04 0.19791690247391E-03 -.30947737448254E-02 -.64115523780089E-02 0.11952525284582E-02
  36 2   C  1S       0.99859975266578E+00 -.15502133218547E-01 -.16974875205963E+00 0.74841020280974E-01 0.37010073692418E-02
  37        2S       0.13598573216957E-01 0.44162482431513E-03 0.33164344797945E+00 -.15187074609521E+00 -.67783936991184E-02
  38        3S       0.17109593062345E-01 0.22712666232773E-01 0.35730948568464E+00 -.32490056173408E+00 0.49775428144874E-01
  39        4S       0.13284718717637E-01 0.49564451221403E-02 0.83931569325424E-01 0.45854175640061E-01 -.10014974448633E-01
  40        5S       0.35026613958490E-02 0.13816669143940E-01 0.81265971104035E-01 0.51493121158528E-01 0.18468082177603E-01
  41        6PX      0.17302712686771E-03 0.15905418274149E-04 -.56247107037959E-02 -.77829304891290E-01 0.50709691736237E+00
  42        6PY      0.16664103365941E-03 0.10658276397398E-04 -.42209901485751E-01 -.12564220503236E+00 -.28388670098989E+00
  43        6PZ      0.60862621779842E-03 0.12937904354967E-03 -.16772233814847E+00 -.48466354845298E+00 -.38751250588761E-02
  44        7PX      -.41983480577564E-03 -.10427003497541E-03 -.18176259862062E-01 0.58112595067556E-01 -.16342349212439E+00
  45        7PY      -.87612399172085E-03 -.14208258884309E-02 0.22293076019465E-01 0.81097051907650E-01 0.87315223592278E-01
  46        7PZ      -.38720433053396E-02 -.56829781523688E-02 0.43377523226731E-01 0.33431655313024E+00 -.12389955637512E-01
  47        8PX      0.22889073125869E-02 0.74875066876602E-03 0.15342539776058E-02 -.38234796936535E-01 -.33983360271000E-01
  48        8PY      0.30338689697198E-02 0.13146808259782E-02 0.20451370018379E-01 0.33507059417607E-01 0.23666935769114E-01
  49        8PZ      0.10440500843047E-01 0.43675136511475E-02 0.52396164610183E-01 -.64293016484436E-02 0.56634024374306E-02
  50        9PX      -.97200434575687E-04 -.14056296043533E-03 -.36970093822886E-03 -.11008251596920E-03 -.17374624197900E-01
  51        9PY      0.66256668026747E-04 -.40097508309645E-03 0.86656394737994E-03 0.25332243330269E-03 0.10722542488551E-01
  52        9PZ      0.32402680767602E-03 -.14741589883912E-02 -.60808287828341E-03 0.18396219499103E-02 0.16399689395345E-02
  53       10XX      -.59942266810088E-02 0.24199905083056E-03 -.11601887168055E-01 -.69735608330119E-02 0.61180431688599E-02
  54       10YY      -.59745248244820E-02 0.18116688534257E-03 -.11295467869816E-01 0.56882522193129E-03 -.22197715840593E-02
  55       10ZZ      -.58758237236907E-02 -.80360743732205E-03 0.81740912595989E-02 0.13486278192164E-01 -.37608435942234E-02
  56       10XY      0.42463830594378E-04 -.66884272985773E-05 -.20509423027004E-03 0.71052355212627E-02 0.25505484711031E-03
  57       10XZ      0.37909116618278E-04 -.97069523325463E-04 0.22302906870818E-02 0.11438888068071E-02 0.72948438626402E-02
  58       10YZ      -.86791027483574E-05 -.33857492860567E-03 0.61860396261588E-02 0.17963688038299E-02 -.56848348212111E-02
  59       11XX      0.61951973160633E-02 0.26423645333576E-02 -.22573519825267E-02 0.51590711012199E-01 -.15452920345284E-01
  60       11YY      0.59596203523451E-02 0.21566662022983E-02 -.64071905718666E-03 0.19750172424430E-01 0.23781935607052E-01
  61       11ZZ      0.83535417857755E-02 0.56921938694348E-02 0.11905359183124E-02 -.87084462399031E-01 0.34901520049913E-01
  62       11XY      -.39343157649041E-03 -.60566090431728E-03 0.78489564690247E-03 -.39720463408442E-01 -.12584731191892E-01
  63       11XZ      0.21213488290820E-03 0.43591162357208E-03 0.15757788727589E-02 -.30386250132664E-01 -.66332268324182E-01
  64       11YZ      0.10272324222581E-02 0.14027815738449E-02 -.17311437035861E-03 -.18168656044956E-01 0.50554723160269E-01
  65       12XX      0.13609347435511E-01 0.27011485160528E-02 0.17304416478019E-01 0.26032899506541E-01 -.13694904443745E-01
  66       12YY      0.12440315697243E-01 0.22595166733426E-02 0.63915371328044E-02 0.18593060498842E-01 -.17446553714807E-01
  67       12ZZ      0.11539019585971E-01 0.19803609301389E-02 -.73235976516746E-03 0.30561577789432E-01 -.15764438995066E-01
  68       12XY      -.13033475879525E-02 -.45492246538516E-03 -.93442603262992E-02 -.31141518855111E-03 -.45825472495656E-02
  69       12XZ      -.40948272948426E-03 -.55833856078151E-04 0.18040125141318E-02 0.10172312374715E-01 -.54026297873071E-02
  70       12YZ      0.55087935816648E-04 0.37262192976198E-04 -.17815171503369E-02 -.86453665898595E-02 0.40864628009469E-02
  71 3   H  1S       0.79125793151640E-03 -.28306481824485E-03 0.19881279241286E+00 -.38442293419967E+00 0.52680575827202E+00
  72        2S       -.57638630543514E-02 -.60551655326123E-02 -.97514875369045E-01 0.30366586338634E-01 0.18073730560018E-01
  73        3S       -.29961681548960E-01 -.11263716544952E-01 -.52889419139179E-01 -.84243726587227E-01 0.22324263226412E+00
  74        4S       -.56131291050088E-03 -.74419619828034E-04 -.14443971650603E-02 -.54848601005294E-02 0.32643150678741E-01
  75        5PX      -.48898439890938E-04 -.18989361417521E-04 -.12998457229129E-01 0.13904194044745E-01 -.89991034461876E-02
  76        5PY      0.68262618074301E-05 0.44102301761318E-04 0.37754748086567E-02 -.68695479428181E-02 0.12849036203004E-02
  77        5PZ      -.43222974902967E-04 0.12397196993940E-03 -.88304701382975E-02 0.49358503582932E-03 -.80925097733975E-02
  78        6PX      0.12615564764523E-02 0.16771947020705E-02 0.13472911812151E-02 0.12551125223947E-01 -.35653650551829E-01
  79        6PY      -.40188963808253E-03 -.63354134361524E-03 -.75105963867197E-04 0.48575464550415E-02 0.16270711600510E-01
  80        6PZ      0.70672570051189E-03 0.62129323333382E-03 0.45012609127733E-03 0.27667550008071E-01 -.24089117858552E-02
  81        7PX      0.38994414644716E-02 0.14046274070548E-02 0.19248012894139E-02 0.83094961010629E-02 -.34857175270731E-01
  82        7PY      -.79939801656351E-03 -.26995360529172E-03 -.21705059558046E-02 -.13918762778407E-02 0.96827539630091E-02
  83        7PZ      0.31259135503997E-02 0.12495291311588E-02 -.39984719207997E-02 0.34243386792551E-02 -.20663808160207E-01
  84 4   H  1S       0.71161246939374E-03 -.30916149726973E-04 0.16836228983581E+00 -.42404283625989E+00 -.49887054873752E+00
  85        2S       -.64685493812411E-02 -.63960658273857E-02 -.11661641728328E+00 0.27625651236207E-01 -.90848182289375E-01
  86        3S       -.31264110540388E-01 -.11312633750561E-01 -.60317771866972E-01 -.60344713913675E-01 -.15631510296709E+00
  87        4S       -.61708899981098E-03 0.21612109140768E-03 -.59595232824062E-02 -.27321249456682E-02 -.32675575339374E-01
  88        5PX      0.39090552728210E-04 0.12754805824233E-03 0.71054388737621E-02 -.12707761511184E-01 -.28168798202167E-02
  89        5PY      -.60872868858726E-04 -.67378854751467E-04 -.74134326135146E-02 0.97556630336912E-02 0.61648459481352E-02
  90        5PZ      -.97956113516859E-04 0.58934759640330E-04 -.90288345511661E-02 0.52608982585181E-02 0.10645268848154E-01
  91        6PX      -.10611570185660E-02 -.13284442823023E-02 -.64838401239212E-02 0.48800406198537E-03 -.37141042485512E-01
  92        6PY      0.10012420655576E-02 0.11444077322187E-02 0.78710307036347E-02 0.13947970647416E-01 0.31214465742276E-01
  93        6PZ      0.94194282543653E-03 0.86530741802609E-03 0.12074263991500E-01 0.33524758912730E-01 0.18419241478553E-01
  94        7PX      -.22229671011242E-02 -.75412909406105E-03 0.17867410167441E-03 -.41408858523639E-03 -.11400226631348E-01
  95        7PY      0.29361409972551E-02 0.10361973275979E-02 0.74889162009551E-03 0.28526312446981E-02 0.11836422601932E-01
  96        7PZ      0.39729429207527E-02 0.15595209969610E-02 0.26380867201911E-02 0.18042720583108E-02 0.10992328015388E-01
                           6         7         8         9        10
                           O         O         O         V         V
     Eigenvalues --  -.13137811350761E+00 -.11390128992946E+00 -.21420799194518E-01 0.69870627375995E-01 0.72122099397075E-01
   1 1   C  1S       0.10022053031647E+00 0.70369238762381E-02 -.30754109101073E-02 0.59735311453597E-03 -.18955976837868E-02
   2        2S       -.21211977603760E+00 -.14459009297407E-01 0.74084895208631E-02 0.16704062059391E-02 -.25250939557813E-02
   3        3S       -.18559672543435E+00 -.20837772395258E-01 0.87811090960442E-02 0.17154916092455E+00 -.36564681144130E+00
   4        4S       -.85013099398012E-01 0.42934658273388E-02 0.23840478850323E-01 -.78842038180780E+00 0.48248189121391E+01
   5        5S       -.24718289034644E+00 -.22954970634366E-01 0.62511651113583E-02 -.76363549535189E+00 -.56790319242504E+01
   6        6PX      0.32286613594999E-01 0.25689688143667E+00 0.70496101329212E+00 -.34751662378932E-02 -.57190944589551E-03
   7        6PY      0.13063610167839E+00 0.47093368537701E+00 -.37967701627200E+00 0.18530618418934E-02 -.54909678079543E-03
   8        6PZ      0.66400745086700E+00 -.73705587845759E-01 0.49282206787403E-01 0.23745745962240E-03 -.43619683921186E-02
   9        7PX      -.20667858278097E-02 -.20021263975108E-01 0.34359686536282E-01 0.19824460898346E-01 -.37492425466802E-01
  10        7PY      0.29654058284168E-02 -.37726273147120E-01 -.21988393963682E-01 0.14524160224836E-01 -.36543848371455E-01
  11        7PZ      -.37444891332971E-02 0.38038871462770E-02 -.73314849780498E-02 0.86774944213976E-01 -.18722441959503E+00
  12        8PX      0.42079199953305E-01 0.30392410969747E-01 0.27593626028102E+00 -.19489251793694E+00 0.25751094633880E+00
  13        8PY      -.88224400672214E-02 0.42609576810278E-01 -.14762254733242E+00 0.54668858581583E-01 0.37617136122015E+00
  14        8PZ      0.10501411258811E+00 0.52661049129040E-02 0.17354877304664E-01 -.25328914950205E+00 0.18208470907127E+01
  15        9PX      -.97324307785010E-03 -.40461771129635E-02 0.92458637700865E-01 -.74083295441874E+00 -.13630533114717E+00
  16        9PY      -.56723726869652E-02 -.70780625479261E-02 -.50604939353670E-01 0.43084217285604E+00 -.10454639825446E+00
  17        9PZ      -.21071814418552E-01 0.13197797632863E-02 0.34642529227584E-02 0.52895614627612E-01 -.85131665323841E+00
  18       10XX      -.16638755436355E-01 0.13594377167123E-02 0.10557598592858E-02 0.29816512882981E-03 -.29805988391518E-03
  19       10YY      -.94334636597396E-02 0.10122245362995E-01 -.32830587109580E-02 0.21109020625238E-03 -.17362957627720E-02
  20       10ZZ      0.36992187737869E-01 -.11038249154573E-01 0.28166563417615E-03 0.13058596046190E-03 0.54629285662688E-03
  21       10XY      0.50945592339695E-02 0.70084136206996E-02 0.24567736242192E-02 0.40833056242351E-03 -.18134505700611E-02
  22       10XZ      0.23329778674471E-02 0.14308431009164E-01 0.11980969222768E-01 0.31357231272398E-03 -.10973396679678E-03
  23       10YZ      0.11336694546085E-01 0.25977884034964E-01 -.63959482590076E-02 -.39012227129059E-03 0.12878913488830E-02
  24       11XX      -.59319926608380E-02 0.66588739318334E-03 0.98468025485577E-03 0.14681087534121E-01 -.45984716023316E-01
  25       11YY      0.65285978245714E-02 0.39019609418314E-02 -.40273298193088E-02 0.15382846874027E-01 -.30721247517866E-01
  26       11ZZ      0.36143889031734E-01 -.40923706117180E-02 -.32855399315135E-02 0.48008206703718E-01 -.10831403756463E+00
  27       11XY      0.10395505163871E-01 0.30266504133791E-02 0.35654295264470E-02 -.23554562618346E-02 0.14234146572934E-01
  28       11XZ      0.38883234640266E-04 0.47185954168703E-02 0.14727397490197E-01 0.92052771472613E-02 -.13003132266986E-01
  29       11YZ      0.75225922718726E-02 0.80601597402093E-02 -.96748204534030E-02 0.72055630430905E-02 -.22431104457438E-01
  30       12XX      0.36487672644485E-01 0.32331494219249E-02 0.85945905923679E-02 0.70057874366654E-01 0.66182046658326E-01
  31       12YY      0.36854232443136E-01 0.42988679800699E-02 -.53270958201758E-02 0.64594588249844E-01 0.41300600086149E-01
  32       12ZZ      0.55276063797440E-01 0.40596589532526E-02 0.22657183201849E-02 0.79421401985930E-02 0.46290025481288E+00
  33       12XY      0.60371595534812E-02 0.18865269606630E-02 0.48740213290070E-02 -.15273803521251E-01 -.17571294428304E-01
  34       12XZ      0.10196012521288E-01 0.40496579793716E-02 0.26419685653953E-01 -.37761444101763E-01 0.72822255392872E-01
  35       12YZ      -.41103328915929E-02 0.46771288892817E-02 -.14112398614118E-01 0.97839755566160E-02 0.11219728921296E+00
  36 2   C  1S       -.59875035523131E-01 -.64289182233291E-03 0.25113472206562E-02 -.34144489714713E-03 0.23954186181429E-02
  37        2S       0.12890443182581E+00 0.20425127008172E-02 -.62338372970260E-02 -.33388407660732E-02 0.18544060061762E-01
  38        3S       0.13887258883128E+00 0.10102615812881E-02 -.96839429346035E-03 -.22846162168559E+00 0.97016400813486E+00
  39        4S       -.11209148594194E-01 0.10279895699560E-01 0.26150466437618E-01 -.89472563880004E+00 0.58913279609416E+01
  40        5S       0.26133915703752E+00 0.31835786325054E-01 0.30352673631832E-02 -.83625555679615E+00 0.13913323529242E+02
  41        6PX      -.95564433893946E-01 0.28754830376532E+00 -.80661785471596E-02 0.42160633922916E-04 0.89031356604476E-03
  42        6PY      -.12731084670119E+00 0.51993776817600E+00 -.20877928575713E-02 -.64274709208296E-03 0.18075659849453E-02
  43        6PZ      -.35105045415881E+00 -.21419495987063E+00 -.26194702085646E-01 -.13215924964850E-02 0.67958684912712E-02
  44        7PX      0.36590048996877E-01 -.12910454115076E-01 -.12673658069113E-01 0.18111151954010E+00 0.45415085242537E-01
  45        7PY      0.65031143198999E-01 -.22340750887358E-01 0.82552881923458E-02 -.84314538751278E-01 -.28952270248592E-01
  46        7PZ      0.24056963746291E+00 0.22549002956983E-01 0.16700338921833E-02 0.54499878235294E-01 -.42702609769397E-01
  47        8PX      -.31170470531685E-01 0.43001207614483E-01 -.11271393092703E+00 0.12677433891075E+01 0.64959407454081E+00
  48        8PY      0.29570142314719E-01 0.88636342573515E-01 0.66019758436491E-01 -.95365879497061E+00 0.68539148307689E+00
  49        8PZ      0.23318322824286E-01 -.20119872519334E-01 0.95200563113626E-02 -.63602928529883E+00 0.27778408130325E+01
  50        9PX      -.30635015760416E-02 0.61911012808349E-02 -.44125788906884E-01 0.37346421951460E+01 0.67986368670143E+00
  51        9PY      -.44771376682471E-02 0.10621503829311E-01 0.25287892465787E-01 -.22993954993990E+01 -.54831523641507E+00
  52        9PZ      -.19373331886489E-01 -.66942199143793E-02 0.10746930842665E-02 -.62185585151170E+00 -.45664270535733E+00
  53       10XX      -.65688582280371E-02 -.14718502272031E-02 -.12226436226362E-01 -.37445605072065E-03 0.49441707468578E-03
  54       10YY      -.32511678375710E-02 -.60675314797147E-02 0.96084258137887E-02 0.43532638968846E-03 0.20629070499142E-03
  55       10ZZ      -.10645351149507E-01 0.60526907656915E-02 0.33444146546076E-02 -.40618843196771E-03 0.53845466973241E-03
  56       10XY      0.33510772851915E-02 -.20872071609711E-02 -.65087863310470E-02 -.13051090079010E-03 -.38080431191746E-03
  57       10XZ      -.30256903970353E-03 -.73430332145527E-02 -.40319146284168E-01 -.54392296145402E-03 0.25365640222546E-04
  58       10YZ      -.22997360551511E-02 -.12756967505737E-01 0.24173327570676E-01 0.20331248605802E-03 -.27820194073706E-03
  59       11XX      0.39070448807593E-01 0.36811984822749E-02 0.16541301742826E-02 -.37255415339236E-03 0.18859211044329E+00
  60       11YY      0.83750361773956E-02 0.22528029395743E-02 0.33276421950994E-03 -.50084548308347E-01 0.15103338611994E+00
  61       11ZZ      -.59181164210574E-01 -.30555582710091E-02 -.16753944199483E-02 -.65023981328565E-01 0.21367033596997E+00
  62       11XY      -.33669375282501E-01 -.11059825286928E-02 -.10140266027913E-02 0.14020294027992E-01 -.34279221091295E-01
  63       11XZ      -.14394564699279E-01 -.14821027256270E-03 0.10814108416458E-03 0.63330615715624E-01 0.12413500829768E-01
  64       11YZ      -.11594958246786E-01 -.13147682151597E-02 -.90990996625561E-03 -.52518157416025E-01 0.33059305071392E-01
  65       12XX      -.30678456573972E-01 0.11865429123708E-01 0.10676214206908E-01 -.38428214151728E+00 0.23673230949575E+01
  66       12YY      -.49732224694069E-01 0.85203369996883E-02 0.20266756042670E-01 -.39738030271916E+00 0.21082930473517E+01
  67       12ZZ      -.51086493857274E-01 0.94159609194834E-02 0.16760986914605E-01 -.34744918064350E+00 0.20530483576905E+01
  68       12XY      -.11880089526418E-01 -.12753417094519E-02 -.17570164186359E-02 0.70039986744155E-01 -.24791486023142E+00
  69       12XZ      0.94559662432474E-02 0.12850907058273E-02 -.84083415297480E-02 0.11166068808083E+00 0.26930554032165E-02
  70       12YZ      -.89272420382597E-02 -.20332945227995E-02 0.54982564030423E-02 -.58064316220984E-01 0.14201680087606E-01
  71 3   H  1S       -.13494847682995E+00 -.43967104272388E-02 -.33619314508312E+00 0.13458887797753E-02 0.47805025649518E-02
  72        2S       -.12020585068742E+00 -.71030277079341E-02 -.54469536229584E-01 -.37235623154480E+00 -.45300384538489E+00
  73        3S       -.60270164143508E-01 -.42515205317335E-01 -.24288947562337E+00 -.24736351363190E+01 -.10535799825236E+02
  74        4S       -.39692482838534E-02 -.13766866860928E-02 -.90032821507019E-01 -.10615233451960E+02 -.45408788066696E+01
  75        5PX      -.98929758746678E-03 0.60094513152091E-02 -.11347539261781E-02 0.10504800038048E-02 0.97138745484534E-04
  76        5PY      -.24403201496022E-02 0.11737813718054E-01 -.63466759596200E-03 -.42742216884100E-03 0.26826021748897E-03
  77        5PZ      -.48285474881275E-02 -.47797436780581E-02 -.41216858251871E-02 0.21591253239546E-03 0.86049074365540E-03
  78        6PX      0.23771682402159E-01 0.81152559665376E-02 -.51796493214925E-02 0.84356666197940E-01 0.10252798483819E+00
  79        6PY      -.41454019182832E-02 0.12581229503721E-01 -.45870294508951E-02 -.29584211891739E-01 -.35837827018647E-01
  80        6PZ      0.22159016656686E-01 -.43006572819962E-02 -.23504909726528E-01 0.46985791374579E-01 0.53703078795651E-01
  81        7PX      -.28406253123086E-02 0.71743312410235E-03 0.62871887790998E-02 0.19157731583105E+00 0.15127381923241E+01
  82        7PY      0.17732108619066E-02 -.92367290099843E-02 -.16179422004843E-02 0.32694748242051E-01 -.32070403309539E+00
  83        7PZ      -.30277365880321E-02 0.63793931166906E-02 0.56180119566287E-02 0.28414437866588E+00 0.11302272556750E+01
  84 4   H  1S       -.15548518793121E+00 -.58654921709256E-02 0.32598393349917E+00 -.38735581263962E-02 0.28770592882328E-02
  85        2S       -.13296081702005E+00 -.67104855095180E-02 0.63181197215564E-01 0.45054767534144E+00 -.33815458456587E+00
  86        3S       -.20907992026466E-01 -.38466815225802E-01 0.13583857879289E+00 0.55995609262016E+01 -.94095078745352E+01
  87        4S       -.35775914762993E-03 -.96735758862403E-03 0.82638224478689E-01 0.11535157936492E+02 0.12212304249382E+00
  88        5PX      -.25724371763604E-02 0.65629816546245E-02 -.23546325369353E-02 0.77779582136923E-03 0.30964051402185E-03
  89        5PY      -.10156790382949E-02 0.10968134396343E-01 0.26075671439317E-02 -.75056097080090E-03 -.58288870038653E-05
  90        5PZ      -.33801046595931E-02 -.46265807156085E-02 0.33331036788720E-02 -.74627223420002E-03 0.40631656607400E-03
  91        6PX      -.13757184192881E-01 0.61155065507302E-02 -.40753219762752E-03 0.66489932465486E-01 -.56652400604303E-01
  92        6PY      0.20630702105539E-01 0.12705632369008E-01 0.65218176172872E-02 -.65585860325731E-01 0.50783020312680E-01
  93        6PZ      0.34305717821195E-01 -.27144933752147E-02 0.19355563855897E-01 -.74897620505967E-01 0.45961829762090E-01
  94        7PX      0.11974719186092E-01 -.59213430787209E-02 -.65337073449401E-02 0.23987106690254E+00 -.82354754389674E+00
  95        7PY      -.73432245685174E-02 -.38455772290816E-02 0.93862651284241E-02 -.46864509964796E+00 0.10111240184975E+01
  96        7PZ      -.32448678352403E-02 0.85049803038482E-02 0.13318070174697E-01 -.73102984916754E+00 0.12700117828903E+01
                          11        12        13        14        15
                           V         V         V         V         V
     Eigenvalues --  0.86664766916861E-01 0.10367856270497E+00 0.10736157570727E+00 0.11079554537236E+00 0.12124850435812E+00
   1 1   C  1S       -.88500780706287E-02 0.82821774607413E-04 -.11695055300010E-02 -.51688398655202E-03 -.78307649724282E-03
   2        2S       -.26401158019900E-01 0.61508956558724E-03 -.74524166680183E-02 -.10978328272548E-03 -.13295887286845E-02
   3        3S       -.63071224012081E+00 -.19095919444717E+00 0.15703888953057E+00 0.77578354916397E-01 0.38851164307027E-01
   4        4S       0.14540529243766E+00 0.71257895358258E-01 -.85426812071253E+00 -.49815732915137E+00 -.15494016813969E+01
   5        5S       0.28370339401512E+02 -.22609656683800E+00 -.64837812425585E+01 0.93155095756957E+00 0.80807113160790E+00
   6        6PX      -.61041160988627E-02 -.91696614397819E-02 0.57521813735584E-02 0.48522528324142E-01 0.73738842448806E-02
   7        6PY      0.94414947837164E-03 -.15389821242222E-01 0.10522635260288E-03 -.27367024598207E-01 0.14147105893533E-01
   8        6PZ      -.83510351668675E-02 0.56379046857263E-02 0.11104943979197E-01 -.60568458496273E-03 -.86373709594294E-02
   9        7PX      -.15423663924553E-01 -.27103498516295E-01 0.36855505265947E-01 0.11113308261281E+00 0.12145854564771E-01
  10        7PY      -.49003540117229E-01 -.54660132603236E-01 0.39842952001641E-01 -.51657810640741E-01 0.22373491196090E-01
  11        7PZ      -.18226527889814E+00 -.89827036718568E-01 0.15966170501425E+00 0.33936091298850E-01 0.28729942348580E-01
  12        8PX      0.33441661260496E-01 0.24798620770287E+00 -.18845925876332E+00 0.13560919370966E+01 -.59901461687941E+00
  13        8PY      0.11065660812307E+00 0.42394464480456E+00 0.22726047239298E+00 -.85018832378119E+00 -.93743487620380E+00
  14        8PZ      0.42572962353676E+00 -.15563426588568E+00 -.39610072789997E+00 -.14909809615194E+00 -.28073578588147E+00
  15        9PX      0.40860747904539E+00 -.13045640595434E+01 -.17373124770628E+01 -.47270401814053E+01 -.16824296390756E+01
  16        9PY      0.81607325404570E+00 -.22768620590741E+01 -.84882557289935E+00 0.29729051354975E+01 -.30864663943501E+01
  17        9PZ      0.34671677896515E+01 0.69279265709758E+00 -.50873583208344E+01 0.93134727254820E+00 0.10610181863812E+01
  18       10XX      -.25084478845753E-02 0.56701037196356E-04 -.25290673958063E-02 -.42662809155530E-03 -.77981866043050E-03
  19       10YY      -.26016915837697E-02 -.19207005814516E-03 -.31629848713473E-03 0.14952420492462E-03 -.12842725151815E-02
  20       10ZZ      -.40115705129021E-02 0.16626065508385E-03 0.29589757447650E-02 -.12904736629138E-03 0.15908091688829E-02
  21       10XY      0.57843594645911E-04 0.17444243670171E-03 0.18605860226855E-02 -.55102815907988E-03 -.84163805617157E-03
  22       10XZ      -.39966507058300E-04 -.34844380635994E-03 -.13616440578144E-03 -.16749805788267E-02 -.23258258013825E-02
  23       10YZ      -.50826427064133E-03 -.43863962463305E-03 0.64985265570884E-03 0.11568624114196E-02 -.46018681589842E-02
  24       11XX      -.14259746528881E+00 -.84802272879837E-02 -.24130381414539E-01 0.21625133565971E-01 0.18360611757426E-02
  25       11YY      -.15230057850104E+00 -.11938422677847E-01 -.32108569523387E-01 -.11148784210559E-01 0.16900048452631E-01
  26       11ZZ      -.21563971329319E+00 -.32776439668476E-01 0.37731231383235E-01 0.41103993628620E-02 -.26176297433161E-01
  27       11XY      -.79323489572427E-02 -.40354660844462E-02 -.40842161506588E-02 0.10849979089282E-01 0.14004260214033E-01
  28       11XZ      -.68952116615790E-02 -.76177928577510E-02 0.19716793585080E-01 0.70896010481046E-01 0.34602835279114E-01
  29       11YZ      -.20001245356648E-01 -.16613171784486E-01 0.22343528399757E-01 -.40452190540098E-01 0.65956766059208E-01
  30       12XX      -.99389658962924E+00 0.41094608239849E-02 -.27304147208514E+00 -.52198240044267E-01 -.12123364013372E+00
  31       12YY      -.10032131016035E+01 -.28689126048111E-01 -.95078902553729E-01 -.82129626198012E-01 -.24804625555929E+00
  32       12ZZ      -.93057530177038E+00 -.41579592544490E-01 -.45042421682233E+00 -.33342919172968E-01 0.52374266648787E-01
  33       12XY      -.12149495005671E-01 0.20515168397428E-01 0.10603029784689E+00 -.15257482002720E-01 -.84532474249267E-01
  34       12XZ      0.84542895149673E-02 0.14778601346212E-01 -.13414210389426E+00 0.81053422945151E-01 -.24829033821071E+00
  35       12YZ      0.25321253487641E-01 0.36958294681019E-01 -.28581035303853E-01 -.34643613153883E-01 -.41158831302273E+00
  36 2   C  1S       0.30685158606400E-02 0.31140942749596E-03 0.21688551251824E-02 -.16792707477856E-02 -.19523105000935E-02
  37        2S       0.42059634196221E-02 0.14219076681299E-02 0.62087206977299E-02 -.64196843024508E-02 -.62448140944332E-02
  38        3S       0.22667421004258E+00 0.27079781937845E+00 0.19628829423538E+00 -.23921146955575E+00 -.17023588516722E+00
  39        4S       -.13556057860491E+01 0.10206909675992E+00 -.24263252697781E+00 -.68281823501131E+00 -.17852306630117E+01
  40        5S       -.26502251669141E+02 0.49103767673054E+00 0.10967090270220E+02 -.23995495577781E+01 -.21473269510972E+01
  41        6PX      0.69405772166377E-03 -.66092539033757E-02 -.27075313848791E-02 -.44842857606073E-02 0.12817247900443E-01
  42        6PY      0.18377639331095E-02 -.11627709568463E-01 -.28241992146500E-02 0.38137247393832E-02 0.23270512150622E-01
  43        6PZ      0.61061146199350E-02 0.31409553642057E-02 -.12400654152684E-01 0.28914982480349E-02 -.30055781171658E-02
  44        7PX      -.33481532882190E-01 -.17695435872245E-01 0.61247948702233E-01 -.53882486123159E-01 -.26480610439444E-01
  45        7PY      -.79794458953788E-01 -.42158914575894E-01 0.85044283080041E-01 0.19106612816150E-01 -.54127720304366E-01
  46        7PZ      -.29458277816357E+00 -.60399171054460E-01 0.32862807340714E+00 -.19228830144564E-01 0.44946400401929E-01
  47        8PX      0.36160016113769E-01 0.22082497187660E+00 0.39019667183638E+00 -.91698276145888E+00 0.46960583113022E+00
  48        8PY      0.68789486802924E-02 0.40983542909859E+00 -.10826465216395E+00 0.38620265733850E+00 0.68651237956154E+00
  49        8PZ      0.18535935080656E+00 -.41426507172843E-02 0.10666246446875E+01 -.47772627779197E+00 -.11412888919100E+01
  50        9PX      0.41403654539678E+00 0.20420923784156E+01 0.19402104347653E+01 0.58564137259560E+01 0.12957169423919E+01
  51        9PY      0.10441856859495E+01 0.35662477561404E+01 0.51290285216287E+00 -.36475110846188E+01 0.24176389576083E+01
  52        9PZ      0.41308297671797E+01 -.11074422613295E+01 0.43452252704110E+01 -.10133435926241E+01 -.70605651335067E+00
  53       10XX      0.73677163468820E-03 0.38819456236722E-03 0.82516566242815E-03 -.11547304081972E-02 -.11305908861464E-02
  54       10YY      0.67847614885627E-03 0.15426293114766E-02 0.61981837619899E-03 0.28317128593438E-03 -.12815482830914E-02
  55       10ZZ      0.72038232222140E-03 -.21272323955614E-02 -.26168277236561E-02 -.26572795913184E-03 0.11439006924473E-02
  56       10XY      -.78594847488508E-04 0.10971534118607E-02 -.19428695502167E-03 -.15371148473473E-02 -.92837418617349E-03
  57       10XZ      0.10771493391583E-03 0.16325100341401E-02 -.73616212097827E-03 -.46754900342147E-02 -.15601346023536E-02
  58       10YZ      0.65540643102062E-04 0.28990278595392E-02 -.10300327493123E-02 0.29652569730452E-02 -.34275589357002E-02
  59       11XX      0.84658528826068E-02 0.20140288046230E-01 0.87194517457382E-01 -.46019235516657E-01 -.36755342640030E-01
  60       11YY      0.32283403689996E-01 0.10378458091063E-01 0.59694898907052E-01 -.65832630943374E-01 -.26136488077705E-01
  61       11ZZ      0.86709536715572E-01 0.88309127562752E-01 0.50414859207753E-01 -.68666410569769E-01 -.75363143447217E-01
  62       11XY      0.30905582236038E-01 -.11844954216927E-01 -.22881504433879E-01 0.37546976560194E-01 0.12005926948214E-01
  63       11XZ      0.14915412932688E-01 -.59451452948307E-02 0.12768435490173E-01 0.92669377229783E-01 0.21458956953224E-01
  64       11YZ      -.36292867408046E-04 -.98452340794164E-02 0.84829874341256E-02 -.66188460172245E-01 0.40751117552431E-01
  65       12XX      0.40712963582628E+00 0.61635041158153E-01 -.38120952743572E+00 -.57094710625510E-01 -.89386946407135E+00
  66       12YY      0.47420923775055E+00 0.20076222519278E+00 -.41001935810318E+00 -.36818697950329E+00 -.85607336512705E+00
  67       12ZZ      0.34517050372923E+00 -.14157586878267E+00 0.10354123207988E+00 -.26181995330724E+00 -.49054990112072E+00
  68       12XY      0.70049238893717E-01 0.76442677318053E-01 -.40941821094899E-02 0.20374118770800E+00 -.69618975515216E-01
  69       12XZ      -.23893964330605E-01 0.16061831019809E+00 0.16741900136087E+00 0.77171632754814E+00 -.16328569029267E+00
  70       12YZ      -.54546282626468E-01 0.26070166569238E+00 0.23561726633386E+00 -.49810370325710E+00 -.29985628541063E+00
  71 3   H  1S       0.11953709558353E-02 0.70628476865361E-03 -.57010892471396E-02 -.27538517838303E-01 0.16043083125212E-02
  72        2S       0.22820888078188E+00 -.76534915782551E-01 -.46289488961292E+00 0.27962402596663E-02 0.74034141200506E-02
  73        3S       0.10166650041014E+01 -.19984676850904E+00 0.30729599580828E+00 0.11235133955010E+01 0.28710122344439E+01
  74        4S       -.43930037054206E+00 -.53910716295925E-01 -.16067501085693E+01 -.26137448461210E+01 0.20563891317446E+00
  75        5PX      -.12179808268611E-02 0.13102329560296E-03 -.39554781947709E-03 -.15242909779273E-03 -.29790301409565E-03
  76        5PY      0.46269299598090E-03 0.96079369334660E-03 0.64775536635530E-03 0.54128975492152E-03 -.48459948511900E-03
  77        5PZ      -.73298399573209E-03 -.18659459732568E-03 0.15833076227121E-02 0.73304283099753E-03 -.16717124744971E-03
  78        6PX      -.47987308137822E-01 0.28515449908423E-01 0.13801442025563E+00 0.57512946643707E-03 0.37626054930814E-02
  79        6PY      0.16774570696841E-01 -.77987882941998E-02 -.68571880926617E-01 -.23127199236541E-01 0.99857457004450E-02
  80        6PZ      -.18654569522316E-01 0.41300104475248E-02 0.11760846945256E-01 -.72476432211073E-01 -.56526868846738E-03
  81        7PX      -.89731575491206E-01 -.44292876878972E+00 -.30570105548144E+00 -.77285326506685E+00 -.33739877261079E+00
  82        7PY      0.24735412584514E-01 -.77752655764532E+00 -.32675936024054E+00 0.18601563018244E+00 0.29901164999267E+00
  83        7PZ      -.46326421018672E-01 0.21623471642964E+00 -.15846106673063E+01 -.89448603508440E+00 -.43918022299553E+00
  84 4   H  1S       -.18301441578885E-02 0.60018562223447E-03 0.89384390032106E-03 0.30241814708008E-01 0.13541284662612E-02
  85        2S       0.29276638796476E+00 -.76398011224985E-01 -.42260746045870E+00 0.35437141599383E+00 0.14577872630090E-01
  86        3S       0.10305245378206E+01 -.24127888041593E+00 0.21770053084873E+00 0.13671348012788E+01 0.31271950710476E+01
  87        4S       -.12051551911606E+01 -.32935571453490E-01 -.54369718093556E+00 0.32028433166766E+01 0.19268444839211E+00
  88        5PX      0.94864782635568E-03 0.10196368256194E-02 0.12147868946492E-02 -.73409337860218E-03 -.88906991264478E-04
  89        5PY      -.82004430228566E-03 0.13536843446844E-02 -.26873166053490E-03 -.20549406416558E-03 -.39288471317282E-03
  90        5PZ      -.85098520664233E-03 -.66759440280352E-03 0.18075687597439E-02 -.16086345538375E-02 -.28314086862101E-03
  91        6PX      0.45608086045761E-01 -.22602406730627E-01 -.11527716426765E+00 0.56295218243538E-01 0.42282680370401E-02
  92        6PY      -.42841570716299E-01 0.13240250256604E-01 0.80475484627550E-01 -.38632862795952E-01 0.78869297813669E-03
  93        6PZ      -.40420704448701E-01 0.99362289304722E-02 0.39524417981988E-01 0.85154744095199E-02 -.27859800848478E-02
  94        7PX      0.34561877079209E-02 -.50311311815564E+00 -.35047865928958E+00 -.41726775320587E+00 0.30978620241046E+00
  95        7PY      -.48689383888649E-01 -.87708973339741E+00 -.22805159791806E+00 0.46716882604923E+00 -.34461576207999E+00
  96        7PZ      -.12290461711404E+00 0.27016628348419E+00 -.12949785331351E+01 0.94466859498657E+00 -.52153590997672E+00
                          16        17        18        19        20
                           V         V         V         V         V
     Eigenvalues --  0.12723836666090E+00 0.12896610621415E+00 0.15852501790263E+00 0.17359020609953E+00 0.17871337295398E+00
   1 1   C  1S       -.15189485819860E-02 -.43003080999141E-02 0.42053488227900E-02 -.16821084206172E-02 -.10048213008470E-03
   2        2S       0.46052344282694E-02 0.51389339913795E-02 -.92304313167872E-01 -.16739952704982E-01 -.23283290714589E-03
   3        3S       0.37194860293318E+00 0.39653290748428E+00 -.11147090229742E+01 -.51698737995503E+00 -.15777044416183E-01
   4        4S       -.44274241776968E+01 -.94578097100936E+01 0.13642777007380E+01 -.49234880649197E+01 0.57214895340657E-01
   5        5S       0.21805044292667E+01 0.98445097867256E+01 0.34037859338238E+02 -.58196519833316E+01 -.18171723530267E-01
   6        6PX      -.14625744761619E-01 -.36286688957304E-02 0.14977333015212E-01 0.22142744447076E-02 0.12674052999882E-01
   7        6PY      -.35154680805229E-03 -.15414062329763E-01 0.51740700338260E-02 0.71202374590200E-03 -.32606625224518E-02
   8        6PZ      -.21466895027838E-01 -.42637360644398E-01 0.41854705114483E-01 0.53538136969955E-02 0.13449860255459E-03
   9        7PX      0.27228573728731E-01 0.49785920742781E-01 -.20538906812804E-01 -.10270951767156E+00 0.92503850261515E-02
  10        7PY      0.46268822863392E-01 0.50097736893240E-01 -.69975451811090E-01 -.24830138465364E-01 -.19719924798693E-02
  11        7PZ      0.21151885576482E+00 0.25274764939693E+00 -.25286986253921E+00 -.21909996468440E+00 -.98260910047644E-02
  12        8PX      -.90221597515166E+00 -.36486694921321E+00 0.29473876562808E+00 -.20731442267204E+01 0.13024470189229E+01
  13        8PY      0.12338398383282E+00 -.65837008542070E+00 -.70674020361495E-02 -.57908783309099E+00 0.17473348547638E+00
  14        8PZ      -.16628749820127E+01 -.36401420800249E+01 0.61728201958537E+00 -.48786725985640E+01 -.60956939068578E+00
  15        9PX      -.19066068147325E+00 0.41255629785120E+00 0.39631711476783E+00 0.89551867610831E-01 0.22017204453183E+00
  16        9PY      0.25129664624275E+00 0.13836303649808E-02 0.70838096763957E+00 -.24322831097743E+00 -.41435345729148E+00
  17        9PZ      -.12964833592244E-02 0.15668009757798E+00 0.31139330999557E+01 -.36504243784364E+00 0.48500662037051E-01
  18       10XX      0.57690467722746E-03 0.68431980973922E-03 -.46315952244148E-02 0.90462671675549E-03 -.34650758801621E-02
  19       10YY      0.14350802435246E-02 0.25367492976057E-02 -.48415970432268E-02 0.67297354408792E-03 0.36880257676732E-02
  20       10ZZ      -.16022002193138E-02 -.35537367811843E-02 -.18790650485621E-02 -.52905436029233E-02 -.29608909823723E-03
  21       10XY      0.14346785641620E-02 0.26563073678258E-02 -.85507348222638E-04 -.80474788559034E-03 -.22285478160491E-02
  22       10XZ      -.43611017540256E-03 0.57316588109913E-03 0.74951712801720E-03 -.24214535426872E-02 0.70814801384271E-03
  23       10YZ      -.99919879205242E-03 -.24829637887065E-02 0.76019287208025E-03 -.11724925933782E-02 -.11407540426266E-03
  24       11XX      0.13946436299691E-01 0.20244380633567E-01 -.26756219811774E+00 -.15162943936956E+00 0.18953223716682E-01
  25       11YY      0.15970029408993E-01 -.84872449626539E-02 -.27539581512080E+00 -.11185288704125E+00 -.30367734424973E-01
  26       11ZZ      0.10599442184325E+00 0.11560766275568E+00 -.35524892111818E+00 -.16807840657909E+00 -.43826554751150E-02
  27       11XY      -.14408454977008E-01 -.23708295062847E-01 -.44692856183613E-02 0.24054738854082E-01 0.16853066933119E-01
  28       11XZ      0.25386806552189E-02 0.16629702682729E-01 -.79488070692520E-02 -.40666540354411E-01 -.67998646226273E-04
  29       11YZ      0.28815549498563E-01 0.28471811041106E-01 -.27120006271960E-01 -.13866759785555E-01 -.61149643845060E-02
  30       12XX      -.80816797126731E-01 -.48621704668647E+00 -.18009577366082E+01 -.93835282654138E+00 0.26753462097898E+00
  31       12YY      -.27667852768080E-01 -.39436419253388E+00 -.18563737610416E+01 -.50266966000314E+00 -.18594049036726E+00
  32       12ZZ      -.46573794809630E+00 -.13071304848787E+01 -.19238419395182E+01 -.19542320111386E+01 -.22304494990411E+00
  33       12XY      0.12409783282460E-03 0.76488124968309E-01 -.22856378802606E-01 0.26447432690231E+00 0.24840669927170E+00
  34       12XZ      -.13535719895503E+00 -.12459798792779E+00 0.37300368910983E-01 -.51492993013418E+00 0.17427255195491E+00
  35       12YZ      -.33142845807051E-01 -.19095708249147E+00 -.53493474892794E-01 -.34892803551737E+00 0.56163405346829E-01
  36 2   C  1S       -.63806663433262E-02 -.12487148161221E-01 -.48931336754449E-02 -.47049583742932E-02 -.22414720403456E-03
  37        2S       -.40711776616118E-02 -.14708839599965E-01 0.36738678375099E-01 -.10236050070011E-01 -.12698965435388E-03
  38        3S       -.71410500037445E+00 -.13893480139156E+01 0.51185648732659E+00 0.94025031442251E+00 0.57998312330481E-01
  39        4S       -.51954165773579E+01 -.11264703910850E+02 -.39502035206315E+00 -.52872603174418E+01 0.23622403198046E-01
  40        5S       -.70018218837552E+01 -.19545616799428E+02 -.30115881881154E+02 0.71750097366886E+01 0.59887944472907E-01
  41        6PX      -.34640181763838E-01 0.24280517918680E-01 -.11951765369525E-02 0.91281279582045E-03 -.87735868130931E-02
  42        6PY      0.25263370729760E-01 -.20254649572048E-02 0.32631544164830E-02 -.34186811329148E-02 0.37760508299773E-02
  43        6PZ      0.25032249183729E-01 0.48234100184449E-01 0.63917211146399E-02 0.29006279621264E-02 0.18978468353774E-03
  44        7PX      0.35107387041657E+00 -.17328870648936E+00 -.47879809054527E-01 0.64696135812617E-01 -.32192313649123E-02
  45        7PY      -.15779452732252E+00 0.11239845651164E+00 -.10434530247796E+00 0.50577779120058E-01 0.13538741823538E-01
  46        7PZ      0.11108646626238E+00 0.59740010472556E-01 -.39224182661604E+00 0.11364935823926E+00 0.96716040170363E-02
  47        8PX      0.24594638312738E+01 -.19645656072041E+01 -.29803253396090E-02 0.10190019036335E+01 -.61467758159222E+00
  48        8PY      -.24327067372639E+01 -.87750787760901E+00 0.45339166333315E+00 -.63197219766202E+00 -.49834937482204E+00
  49        8PZ      -.25931616497640E+01 -.47497369846970E+01 0.14013823968122E+01 -.37460848289475E+00 0.31938211633196E+00
  50        9PX      0.39348175964036E+01 -.21931397195885E+01 0.29053184380517E+00 -.18303856004518E+00 -.61582088147903E+00
  51        9PY      -.23277711283980E+01 0.16993098076818E+01 0.10591488181837E+01 0.65837342431941E-01 0.71317886778850E+00
  52        9PZ      -.24196783763572E-01 0.18884865034291E+01 0.38729404005028E+01 -.49233298062298E+00 -.25922969844126E-01
  53       10XX      -.94599859346898E-03 -.10143511086599E-03 0.16777383142373E-02 -.67472842048491E-03 -.65445566243996E-02
  54       10YY      0.60765774609253E-03 -.91580370380245E-03 0.17842113887383E-02 -.12943596227982E-02 0.66191185969907E-02
  55       10ZZ      -.89660574041272E-03 -.17638167262431E-02 -.25843800139040E-02 0.16115007166405E-02 -.24069242857673E-03
  56       10XY      0.18478996333097E-03 0.21314415205061E-03 -.43708580054141E-03 0.20932510043649E-02 -.39804762202452E-02
  57       10XZ      -.66022721028550E-03 0.99804227670038E-03 -.12959484836921E-02 0.41315437064936E-02 0.60782687983629E-03
  58       10YZ      0.75271951857363E-03 0.55556536753548E-03 -.74374560633996E-03 -.35757505298522E-03 0.43424196078987E-03
  59       11XX      -.71397944514861E-01 -.32176490242729E+00 0.65023861352380E-01 0.14630632711588E+00 0.49691196977688E-01
[...]
  68         V       0.10625893023161E+01 0.14349518436443E+01
  69         V       0.11270161175841E+01 0.18542430853613E+01
  70         V       0.11283740916801E+01 0.18862407609195E+01
  71         V       0.11867879394972E+01 0.19794420187481E+01
  72         V       0.13119870972187E+01 0.21196450191420E+01
  73         V       0.14383629778306E+01 0.23788287926629E+01
  74         V       0.15750532747798E+01 0.21994212615946E+01
  75         V       0.16593140529620E+01 0.21829650492249E+01
  76         V       0.16826562777758E+01 0.22130101122927E+01
  77         V       0.17065123250277E+01 0.21207434264479E+01
  78         V       0.17965267464520E+01 0.22631813344382E+01
  79         V       0.18234513000714E+01 0.23835557154849E+01
  80         V       0.18501268360171E+01 0.22708933466396E+01
  81         V       0.19537916904346E+01 0.24129825055367E+01
  82         V       0.19603392189612E+01 0.24524966030851E+01
  83         V       0.19759916990412E+01 0.24277049143951E+01
  84         V       0.20231958770239E+01 0.25878068121215E+01
  85         V       0.22195765385841E+01 0.27841401561269E+01
  86         V       0.22379165062675E+01 0.28131746494724E+01
  87         V       0.23121700794275E+01 0.29188637513541E+01
  88         V       0.23348815841723E+01 0.30118246636312E+01
  89         V       0.23687978610021E+01 0.36021187014594E+01
  90         V       0.25581954753629E+01 0.38971706155339E+01
  91         V       0.26962034432294E+01 0.37901779804133E+01
  92         V       0.27962980812538E+01 0.37474646738556E+01
  93         V       0.29062635450648E+01 0.39456599315809E+01
  94         V       0.53754327768069E+01 0.13182608447004E+02
  95         V       0.58206560802451E+01 0.14520597190182E+02
 Orbital energies and kinetic energies (beta):
                                 1                 2
   1         O       -.10094432764955E+02 0.15931363494453E+02
   2         O       -.10055931555134E+02 0.15958605380421E+02
   3         O       -.57607474472363E+00 0.15151881165312E+01
   4         O       -.34559969707126E+00 0.12306193647316E+01
   5         O       -.24768258580059E+00 0.83532281981345E+00
   6         O       -.10918487639785E+00 0.97059799755808E+00
   7         O       -.10426437705501E+00 0.11754735472695E+01
   8         V       0.78178651290540E-01 0.17133579735545E-01
   9         V       0.79554439745809E-01 0.15702919860767E-01
  10         V       0.95976599569590E-01 0.22526735735909E-01
  11         V       0.10955677458259E+00 0.30311582357818E-01
  12         V       0.11580219607269E+00 0.35565602059091E-01
  13         V       0.12774880891396E+00 0.36950536532172E-01
  14         V       0.12824544744095E+00 0.35671401988760E-01
  15         V       0.14146028932524E+00 0.54723828477159E-01
  16         V       0.14329901187755E+00 0.46469795876653E-01
  17         V       0.16773131580520E+00 0.73152840369443E-01
  18         V       0.18964467414716E+00 0.79030435686003E-01
  19         V       0.19306221423054E+00 0.77768265569095E-01
  20         V       0.20609669259446E+00 0.11867390401872E+00
  21         V       0.20885024222450E+00 0.13674261278085E+00
  22         V       0.21081434616468E+00 0.13975002151037E+00
  23         V       0.21543050393488E+00 0.17407650773960E+00
  24         V       0.22250356914069E+00 0.12010853194925E+00
  25         V       0.23979843730931E+00 0.16343032487185E+00
  26         V       0.25064912911662E+00 0.53732532289232E+00
  27         V       0.27201432596308E+00 0.35147197315851E+00
  28         V       0.27613342460087E+00 0.27400258519853E+00
  29         V       0.29264362026485E+00 0.19599209933893E+00
  30         V       0.30495238540087E+00 0.18650728274586E+00
  31         V       0.31040317921789E+00 0.16803179241499E+00
  32         V       0.31509767327783E+00 0.29376600855378E+00
  33         V       0.32311872781684E+00 0.22256696957068E+00
  34         V       0.32905907827938E+00 0.33359534887347E+00
  35         V       0.33678608463569E+00 0.28600030865605E+00
  36         V       0.34407713683203E+00 0.32281621624338E+00
  37         V       0.34602915714254E+00 0.27090463196774E+00
  38         V       0.35225359428609E+00 0.38036834280381E+00
  39         V       0.36247648734546E+00 0.25381017265864E+00
  40         V       0.36516230206207E+00 0.33762816035898E+00
  41         V       0.38414094210325E+00 0.34124315244530E+00
  42         V       0.38757136557506E+00 0.45308310525060E+00
  43         V       0.40155855363302E+00 0.81866075429729E+00
  44         V       0.41779174723726E+00 0.53253371417583E+00
  45         V       0.47248753786590E+00 0.70075879400073E+00
  46         V       0.50296874121504E+00 0.71647041862537E+00
  47         V       0.51238152840823E+00 0.47622556628022E+00
  48         V       0.55372038562885E+00 0.98797408778492E+00
  49         V       0.60537898771406E+00 0.75057127233324E+00
  50         V       0.61616002301479E+00 0.57656180863089E+00
  51         V       0.62761015461713E+00 0.66060153400799E+00
  52         V       0.66974364749233E+00 0.62659067031936E+00
  53         V       0.68433984285363E+00 0.67555962858460E+00
  54         V       0.70254461656834E+00 0.79360739436691E+00
  55         V       0.72145363892315E+00 0.63612519860509E+00
  56         V       0.75545036893241E+00 0.84486727392689E+00
  57         V       0.78403455568715E+00 0.75966994341999E+00
  58         V       0.80582577221999E+00 0.88475140760448E+00
  59         V       0.81131278944432E+00 0.87860654266424E+00
  60         V       0.83940565913414E+00 0.11140289212392E+01
  61         V       0.87914939028540E+00 0.12992751859261E+01
  62         V       0.88225804986331E+00 0.88551118349660E+00
  63         V       0.89081680175013E+00 0.10718425344463E+01
  64         V       0.91066695275184E+00 0.12083373437750E+01
  65         V       0.91872749446781E+00 0.14699310457328E+01
  66         V       0.95615699625882E+00 0.18702004185766E+01
  67         V       0.10162334007205E+01 0.19799553470401E+01
  68         V       0.10646729102492E+01 0.14311286287495E+01
  69         V       0.11341890324116E+01 0.19086518531264E+01
  70         V       0.11553999677734E+01 0.20119874545410E+01
  71         V       0.11902559298684E+01 0.19928342647929E+01
  72         V       0.13147441831606E+01 0.21298583950227E+01
  73         V       0.14440255828196E+01 0.23920343962550E+01
  74         V       0.15806492421780E+01 0.22060723584983E+01
  75         V       0.16647863996489E+01 0.21883676187144E+01
  76         V       0.16896495822232E+01 0.22213727790782E+01
  77         V       0.17146853856017E+01 0.21326329249724E+01
  78         V       0.18210761205236E+01 0.22969696367258E+01
  79         V       0.18556186877483E+01 0.23857074816249E+01
  80         V       0.18920359168220E+01 0.22673934415320E+01
  81         V       0.19674617814563E+01 0.24079671212985E+01
  82         V       0.19750986382838E+01 0.24316204570200E+01
  83         V       0.19881374106218E+01 0.24425736961131E+01
  84         V       0.20316477121193E+01 0.25823047739120E+01
  85         V       0.22308526222426E+01 0.27275863302650E+01
  86         V       0.22497428860380E+01 0.28523695146245E+01
  87         V       0.23215537331330E+01 0.29028583909606E+01
  88         V       0.23489961046220E+01 0.30157559567556E+01
  89         V       0.23754992930062E+01 0.36301947163922E+01
  90         V       0.25692755915833E+01 0.38900794622085E+01
  91         V       0.27116631984482E+01 0.37872332505470E+01
  92         V       0.28055618597172E+01 0.37515502687183E+01
  93         V       0.29170737004703E+01 0.39443247381967E+01
  94         V       0.53970662150095E+01 0.13189956637220E+02
  95         V       0.58198069491608E+01 0.14518784749475E+02
 Total kinetic energy from orbitals= 7.630499939184D+01
                          Isotropic Fermi Contact Couplings
        Atom                 a.u.       MegaHertz       Gauss      10(-4) cm-1
     1  C(13)              0.04984      56.03150      19.99343      18.69010
     2  C(13)             -0.04983     -56.01918     -19.98904     -18.68599
     3  H(1)               0.03222     144.03036      51.39361      48.04336
     4  H(1)               0.03271     146.22349      52.17617      48.77491
 --------------------------------------------------------
       Center         ----  Spin Dipole Couplings  ----
                      3XX-RR        3YY-RR        3ZZ-RR
 --------------------------------------------------------
     1   Atom        0.584603     -0.111253     -0.473350
     2   Atom       -0.019571     -0.058685      0.078256
     3   Atom       -0.007867     -0.005835      0.013702
     4   Atom       -0.004459     -0.004449      0.008909
 --------------------------------------------------------
                        XY            XZ            YZ
 --------------------------------------------------------
     1   Atom       -0.528933      0.062447     -0.058682
     2   Atom       -0.032585      0.022000      0.044995
     3   Atom        0.001474      0.003718      0.004359
     4   Atom        0.001778      0.002913      0.002173
 --------------------------------------------------------


 ---------------------------------------------------------------------------------
              Anisotropic Spin Dipole Couplings in Principal Axis System
 ---------------------------------------------------------------------------------

       Atom             a.u.   MegaHertz   Gauss  10(-4) cm-1        Axes

              Baa    -0.4840   -64.942   -23.173   -21.662  0.0634  0.2425  0.9681
     1 C(13)  Bbb    -0.3909   -52.457   -18.718   -17.498  0.4743  0.8461 -0.2430
              Bcc     0.8749   117.399    41.891    39.160  0.8781 -0.4746  0.0613
 
              Baa    -0.0918   -12.323    -4.397    -4.111  0.4644  0.8395 -0.2821
     2 C(13)  Bbb    -0.0012    -0.162    -0.058    -0.054  0.8785 -0.4770  0.0269
              Bcc     0.0930    12.485     4.455     4.165  0.1120  0.2603  0.9590
 
              Baa    -0.0088    -4.671    -1.667    -1.558  0.9364 -0.3395 -0.0891
     3 H(1)   Bbb    -0.0065    -3.493    -1.246    -1.165  0.3082  0.9168 -0.2540
              Bcc     0.0153     8.164     2.913     2.723  0.1679  0.2103  0.9631
 
              Baa    -0.0063    -3.338    -1.191    -1.114  0.7390 -0.6722 -0.0456
     4 H(1)   Bbb    -0.0037    -1.971    -0.703    -0.657  0.6383  0.7202 -0.2718
              Bcc     0.0100     5.309     1.894     1.771  0.2155  0.1717  0.9613
 

 ---------------------------------------------------------------------------------

 No NMR shielding tensors so no spin-rotation constants.
 Leave Link  601 at Tue Jun 13 17:02:45 2023, MaxMem= 1966080000 cpu:       2.1
 (Enter /local/g09-source/g09/l701.exe)
 Compute integral first derivatives.
 ... and contract with generalized density number  0.
 R6Disp: Adding dispersion energy 1st derivatives to the gradient.
 Leave Link  701 at Tue Jun 13 17:02:46 2023, MaxMem= 1966080000 cpu:       1.1
 (Enter /local/g09-source/g09/l702.exe)
 L702 exits ... SP integral derivatives will be done elsewhere.
 Leave Link  702 at Tue Jun 13 17:02:46 2023, MaxMem= 1966080000 cpu:       0.3
 (Enter /local/g09-source/g09/l703.exe)
 Compute integral first derivatives, UseDBF=F ICtDFT=           0.
 Integral derivatives from FoFDir, PRISM(SPDF).
 Calling FoFJK, ICntrl=      2127 FMM=F ISym2X=0 I1Cent= 0 IOpClX= 1 NMat=1 NMatS=1 NMatT=0.
 FoFJK:  IHMeth= 1 ICntrl=  2127 DoSepK=T KAlg= 1 I1Cent= 0 FoldK=F
 FoFCou: FMM=F IPFlag=           0 FMFlag=      100000 FMFlg1=         800
         NFxFlg=           0 DoJE=F BraDBF=F KetDBF=F FulRan=T
         Omega=  0.000000  0.000000  1.000000  0.000000  0.000000 ICntrl=    2527 IOpCl=  0
         NMat0=    1 NMatS0=    1 NMatT0=    0 NMatD0=    1 NMtDS0=    0 NMtDT0=    0
         I1Cent=           0 NGrid=           0.
 Symmetry not used in FoFCou.
 Leave Link  703 at Tue Jun 13 17:02:48 2023, MaxMem= 1966080000 cpu:      15.4
 (Enter /local/g09-source/g09/l716.exe)
 Dipole        = 6.74272178D-02 9.46262881D-02-3.67315663D-01
 -------------------------------------------------------------------
 Center     Atomic                   Forces (Hartrees/Bohr)
 Number     Number              X              Y              Z
 -------------------------------------------------------------------
      1        6          -0.004880350    0.007988713    0.022836167
      2        6           0.016765165    0.010716884    0.030134315
      3        1          -0.038577205    0.012200360   -0.016753564
      4        1           0.026692390   -0.030905956   -0.036216917
 -------------------------------------------------------------------
 Cartesian Forces:  Max     0.038577205 RMS     0.023822583
 Z-matrix is all fixed cartesians, so copy forces.
 Force constants in Cartesian coordinates: 
                1             2             3             4             5 
      1  0.448020D-01
      2 -0.428537D-02  0.456620D-01
      3  0.567410D-01  0.118886D+00  0.501330D+00
      4 -0.702590D-01  0.116430D-01 -0.556316D-01  0.350939D+00
      5  0.126759D-01 -0.633882D-01 -0.115560D+00 -0.128598D+00  0.197280D+00
      6 -0.506356D-01 -0.114418D+00 -0.503100D+00  0.867890D-01  0.171175D+00
      7  0.974940D-02 -0.123866D-02 -0.805871D-03 -0.176738D+00  0.555720D-01
      8 -0.713035D-02  0.101564D-01 -0.164230D-02  0.516695D-01 -0.496987D-01
      9 -0.216085D-01  0.806443D-02  0.502895D-03 -0.680213D-01  0.454102D-02
     10  0.157076D-01 -0.611898D-02 -0.303607D-03 -0.103942D+00  0.603499D-01
     11 -0.126016D-02  0.756982D-02 -0.168343D-02  0.652853D-01 -0.841935D-01
     12  0.155031D-01 -0.125328D-01  0.126690D-02  0.368638D-01 -0.601559D-01
                6             7             8             9            10 
      6  0.742742D+00
      7 -0.662742D-01  0.171242D+00
      8  0.186845D-02 -0.579485D-01  0.352799D-01
      9 -0.111065D+00  0.742811D-01 -0.856418D-02  0.928361D-01
     10  0.301208D-01 -0.425327D-02  0.134093D-01  0.153487D-01  0.924878D-01
     11 -0.586259D-01  0.361509D-02  0.426241D-02 -0.404127D-02 -0.676402D-01
     12 -0.128577D+00 -0.720100D-02  0.833803D-02  0.177264D-01 -0.451659D-01
               11            12 
     11  0.723613D-01
     12  0.643506D-01  0.109583D+00
 Leave Link  716 at Tue Jun 13 17:02:48 2023, MaxMem= 1966080000 cpu:       0.7
 (Enter /local/g09-source/g09/l103.exe)

 GradGradGradGradGradGradGradGradGradGradGradGradGradGradGradGradGradGrad
 Berny optimization.
 Search for a local minimum.
 Step number   1 out of a maximum of    2
 All quantities printed in internal units (Hartrees-Bohrs-Radians)
 Second derivative matrix not updated -- first step.
 The second derivative matrix:
                          X1        Y1        Z1        X2        Y2
           X1        0.44801976105507E-01
           Y1        -.42853665297035E-02 0.45661979182126E-01
           Z1        0.56741048650738E-01 0.11888617237021E+00 0.50133000061550E+00
           X2        -.70258969279827E-01 0.11643008413032E-01 -.55631571006722E-01 0.35093913967540E+00
           Y2        0.12675876454168E-01 -.63388198360606E-01 -.11556043524963E+00 -.12859779928614E+00 0.19728044023652E+00
           Z2        -.50635626667581E-01 -.11441782787561E+00 -.50309979171283E+00 0.86789045098689E-01 0.17117529087721E+00
           X3        0.97494007094394E-02 -.12386571249565E-02 -.80587050214115E-03 -.17673803979677E+00 0.55572027074654E-01
           Y3        -.71303548527240E-02 0.10156403002416E-01 -.16423023231854E-02 0.51669504623514E-01 -.49698709783391E-01
           Z3        -.21608502242348E-01 0.80644307179441E-02 0.50289490305601E-03 -.68021264168210E-01 0.45410201621077E-02
           X4        0.15707592464881E-01 -.61189847583719E-02 -.30360714187507E-03 -.10394213059879E+00 0.60349895757315E-01
           Y4        -.12601550717408E-02 0.75698161760645E-02 -.16834347973884E-02 0.65285286249591E-01 -.84193532092521E-01
           Z4        0.15503080259191E-01 -.12532775212545E-01 0.12668961942733E-02 0.36863790076243E-01 -.60155875789679E-01
                          Z2        X3        Y3        Z3        X4
           Z2        0.74274179575538E+00
           X3        -.66274223299736E-01 0.17124190843544E+00
           Y3        0.18684483856137E-02 -.57948459738378E-01 0.35279900309252E-01
           Z3        -.11106533422457E+00 0.74281090783742E-01 -.85641773735800E-02 0.92836081550916E-01
           X4        0.30120804868628E-01 -.42532693481067E-02 0.13409309967588E-01 0.15348675626816E-01 0.92487807482021E-01
           Y4        -.58625911387213E-01 0.36150897886801E-02 0.42624064717227E-02 -.40412735064717E-02 -.67640220966531E-01
           Z4        -.12857666981798E+00 -.72009969818647E-02 0.83380313111517E-02 0.17726357770597E-01 -.45165873353569E-01
                          Y4        Z4
           Y4        0.72361309444734E-01
           Z4        0.64350619691073E-01 0.10958341585311E+00
     Eigenvalues ---    0.07824   0.10105   0.11237   0.25234   0.53637
     Eigenvalues ---    1.23730
 Quadratic step=3.338D-01 exceeds max=3.000D-01 adjusted using Lamda=-2.218D-02.
 Angle between NR and scaled steps=   2.67 degrees.
 Angle between quadratic step and forces=  24.02 degrees.
 Linear search not attempted -- first point.
 TrRot= -0.016344  0.016500  0.029179 -0.026552  0.008929  0.024530
 Variable       Old X    -DE/DX   Delta X   Delta X   Delta X     New X
                                 (Linear)    (Quad)   (Total)
    X1       -0.07204  -0.00488   0.00000  -0.02756  -0.04384  -0.11588
    Y1       -0.16954   0.00799   0.00000   0.02288   0.03957  -0.12997
    Z1       -0.02123   0.02284   0.00000   0.06076   0.09080   0.06957
    X2        0.20864   0.01677   0.00000   0.04506   0.05164   0.26028
    Y2        0.42806   0.01072   0.00000   0.01946   0.03486   0.46292
    Z2        2.45587   0.03013   0.00000   0.01270   0.03961   2.49548
    X3        2.15185  -0.03858   0.00000  -0.14328  -0.12854   2.02331
    Y3       -0.19412   0.01220   0.00000   0.04327   0.05487  -0.13925
    Z3        3.53792  -0.01675   0.00000  -0.01189  -0.00081   3.53711
    X4       -1.11677   0.02669   0.00000   0.10041   0.12074  -0.99603
    Y4        1.75914  -0.03091   0.00000  -0.14696  -0.12930   1.62984
    Z4        3.90696  -0.03622   0.00000  -0.16805  -0.12960   3.77736
         Item               Value     Threshold  Converged?
 Maximum Force            0.038577     0.000450     NO 
 RMS     Force            0.023823     0.000300     NO 
 Maximum Displacement     0.129599     0.001800     NO 
 RMS     Displacement     0.084067     0.001200     NO 
 Predicted change in Energy=-1.230655D-02
 GradGradGradGradGradGradGradGradGradGradGradGradGradGradGradGradGradGrad

 Leave Link  103 at Tue Jun 13 17:02:49 2023, MaxMem= 1966080000 cpu:       0.1
 (Enter /local/g09-source/g09/l9999.exe)

 Test job not archived.
 1\1\GINC-WUX01\Force\UwB97XD\Gen\C2H2(1-,2)\ISSLERK\13-Jun-2023\0\\#p 
 wB97XD/GEN 6D Iop(6/7=3) Iop(9/40=14) scf(maxcyc=200,conver=7) nosym G
 uess(Read,TCheck) GFInput Force\\Comment\\-1,2\C,-0.038122905,-0.08971
 5598,-0.011232282\C,0.11040531,0.22652082,1.299589481\H,1.138708343,-0
 .102725808,1.872187409\H,-0.590970783,0.93089673,2.067472541\\Version=
 EM64L-G09RevA.02\HF=-77.2480895\S2=0.7627\S2-1=0.\S2A=0.750119\RMSD=7.
 724e-08\RMSF=2.382e-02\Dipole=0.1999013,0.3172093,1.2078795\Quadrupole
 =1.1094123,0.7683546,-1.8777669,-0.2485727,-0.2599635,-0.5118383\PG=C0
 1 [X(C2H2)]\\@


 SIC AS THE CAWSE OF EWERY THING IS, SIC WILBE THE EFFECT.
 -- PROVERBS AND REASONS OF THE YEAR 1585
           AS REPRINTED IN PAISLEY MAGAZINE 1828.
 Job cpu time:  0 days  0 hours  1 minutes 52.6 seconds.
 File lengths (MBytes):  RWF=     15 Int=      0 D2E=      0 Chk=      2 Scr=      1
 Normal termination of Gaussian 09 at Tue Jun 13 17:02:49 2023.
