 Entering Gaussian System, Link 0=g09
 Input=an.in2
 Output=an.log2
 Initial command:
 /local/g09-source/g09/l1.exe /scratch/1532360/TRAJ_1/Gau-17682.inp -scrdir=/scratch/1532360/TRAJ_1/
 Entering Link 1 = /local/g09-source/g09/l1.exe PID=     17684.
  
 Copyright (c) 1988,1990,1992,1993,1995,1998,2003,2009, Gaussian, Inc.
                  All Rights Reserved.
  
 This is part of the Gaussian(R) 09 program.  It is based on
 the Gaussian(R) 03 system (copyright 2003, Gaussian, Inc.),
 the Gaussian(R) 98 system (copyright 1998, Gaussian, Inc.),
 the Gaussian(R) 94 system (copyright 1995, Gaussian, Inc.),
 the Gaussian 92(TM) system (copyright 1992, Gaussian, Inc.),
 the Gaussian 90(TM) system (copyright 1990, Gaussian, Inc.),
 the Gaussian 88(TM) system (copyright 1988, Gaussian, Inc.),
 the Gaussian 86(TM) system (copyright 1986, Carnegie Mellon
 University), and the Gaussian 82(TM) system (copyright 1983,
 Carnegie Mellon University). Gaussian is a federally registered
 trademark of Gaussian, Inc.
  
 This software contains proprietary and confidential information,
 including trade secrets, belonging to Gaussian, Inc.
  
 This software is provided under written license and may be
 used, copied, transmitted, or stored only in accord with that
 written license.
  
 The following legend is applicable only to US Government
 contracts under FAR:
  
                    RESTRICTED RIGHTS LEGEND
  
 Use, reproduction and disclosure by the US Government is
 subject to restrictions as set forth in subparagraphs (a)
 and (c) of the Commercial Computer Software - Restricted
 Rights clause in FAR 52.227-19.
  
 Gaussian, Inc.
 340 Quinnipiac St., Bldg. 40, Wallingford CT 06492
  
  
 ---------------------------------------------------------------
 Warning -- This program may not be used in any manner that
 competes with the business of Gaussian, Inc. or will provide
 assistance to any competitor of Gaussian, Inc.  The licensee
 of this program is prohibited from giving any competitor of
 Gaussian, Inc. access to this program.  By using this program,
 the user acknowledges that Gaussian, Inc. is engaged in the
 business of creating and licensing software in the field of
 computational chemistry and represents and warrants to the
 licensee that it is not a competitor of Gaussian, Inc. and that
 it will not use this program in any manner prohibited above.
 ---------------------------------------------------------------
  

 Cite this work as:
 Gaussian 09, Revision A.02,
 M. J. Frisch, G. W. Trucks, H. B. Schlegel, G. E. Scuseria, 
 M. A. Robb, J. R. Cheeseman, G. Scalmani, V. Barone, B. Mennucci, 
 G. A. Petersson, H. Nakatsuji, M. Caricato, X. Li, H. P. Hratchian, 
 A. F. Izmaylov, J. Bloino, G. Zheng, J. L. Sonnenberg, M. Hada, 
 M. Ehara, K. Toyota, R. Fukuda, J. Hasegawa, M. Ishida, T. Nakajima, 
 Y. Honda, O. Kitao, H. Nakai, T. Vreven, J. A. Montgomery, Jr., 
 J. E. Peralta, F. Ogliaro, M. Bearpark, J. J. Heyd, E. Brothers, 
 K. N. Kudin, V. N. Staroverov, R. Kobayashi, J. Normand, 
 K. Raghavachari, A. Rendell, J. C. Burant, S. S. Iyengar, J. Tomasi, 
 M. Cossi, N. Rega, J. M. Millam, M. Klene, J. E. Knox, J. B. Cross, 
 V. Bakken, C. Adamo, J. Jaramillo, R. Gomperts, R. E. Stratmann, 
 O. Yazyev, A. J. Austin, R. Cammi, C. Pomelli, J. W. Ochterski, 
 R. L. Martin, K. Morokuma, V. G. Zakrzewski, G. A. Voth, 
 P. Salvador, J. J. Dannenberg, S. Dapprich, A. D. Daniels, 
 O. Farkas, J. B. Foresman, J. V. Ortiz, J. Cioslowski, 
 and D. J. Fox, Gaussian, Inc., Wallingford CT, 2009.
 
 ******************************************
 Gaussian 09:  EM64L-G09RevA.02 11-Jun-2009
                13-Jun-2023 
 ******************************************
 %Chk=an.chk
 %Nproc=6
 Will use up to    6 processors via shared memory.
 %Mem=15000Mb
 ----------------------------------------------------------------------
 #p wB97XD/GEN 6D Iop(6/7=3) Iop(9/40=14) scf(maxcyc=200,conver=7) nosy
 m Guess(Read,TCheck) GFInput Force
 ----------------------------------------------------------------------
 1/10=7,30=1,38=1/1,3;
 2/12=2,15=1,17=6,18=5,40=1/2;
 3/5=7,8=2,11=2,16=1,24=10,25=1,30=1,71=1,74=-58/1,2,3;
 4/5=102/1;
 5/5=2,6=7,7=200/2;
 6/7=3,8=2,9=2,10=2,28=1/1;
 7/29=1,30=1/1,2,3,16;
 1/10=7,30=1/3;
 99//99;
 Leave Link    1 at Tue Jun 13 17:05:09 2023, MaxMem= 1966080000 cpu:       0.2
 (Enter /local/g09-source/g09/l101.exe)
 -------
 Comment
 -------
 Symbolic Z-matrix:
 Charge = -1 Multiplicity = 2
 C                    -0.03799  -0.08898  -0.00781 
 C                     0.11137   0.22549   1.29585 
 H                     1.12664  -0.09897   1.87155 
 H                    -0.59203   0.93067   2.07193 
 
 NAtoms=      4 NQM=      4 NQMF=      0 NMic=      0 NMicF=      0 NTot=      4.
                    Isotopes and Nuclear Properties:
 (Nuclear quadrupole moments (NQMom) in fm**2, nuclear magnetic moments (NMagM)
  in nuclear magnetons)

  Atom         1           2           3           4
 IAtWgt=          12          12           1           1
 AtmWgt=  12.0000000  12.0000000   1.0078250   1.0078250
 NucSpn=           0           0           1           1
 AtZEff=   0.0000000   0.0000000   0.0000000   0.0000000
 NQMom=    0.0000000   0.0000000   0.0000000   0.0000000
 NMagM=    0.0000000   0.0000000   2.7928460   2.7928460
 Leave Link  101 at Tue Jun 13 17:05:09 2023, MaxMem= 1966080000 cpu:       0.5
 (Enter /local/g09-source/g09/l103.exe)

 GradGradGradGradGradGradGradGradGradGradGradGradGradGradGradGradGradGrad
 Berny optimization.
 Initialization pass.
 Trust Radius=3.00D-01 FncErr=1.00D-07 GrdErr=1.00D-07
 Number of steps in this run=   2 maximum allowed number of steps=   2.
 GradGradGradGradGradGradGradGradGradGradGradGradGradGradGradGradGradGrad

 Leave Link  103 at Tue Jun 13 17:05:09 2023, MaxMem= 1966080000 cpu:       0.1
 (Enter /local/g09-source/g09/l202.exe)
                          Input orientation:                          
 ---------------------------------------------------------------------
 Center     Atomic      Atomic             Coordinates (Angstroms)
 Number     Number       Type             X           Y           Z
 ---------------------------------------------------------------------
      1          6           0       -0.037987   -0.088978   -0.007810
      2          6           0        0.111371    0.225487    1.295847
      3          1           0        1.126641   -0.098969    1.871546
      4          1           0       -0.592029    0.930670    2.071927
 ---------------------------------------------------------------------
                    Distance matrix (angstroms):
                    1          2          3          4
     1  C    0.000000
     2  C    1.349340   0.000000
     3  H    2.210981   1.211393   0.000000
     4  H    2.381586   1.262678   2.013488   0.000000
 Symmetry turned off by external request.
 Stoichiometry    C2H2(1-,2)
 Framework group  C1[X(C2H2)]
 Deg. of freedom     6
 Full point group                 C1      NOp   1
 Rotational constants (GHZ):    249.8140157     34.7320747     30.5112463
 Leave Link  202 at Tue Jun 13 17:05:09 2023, MaxMem= 1966080000 cpu:       0.0
 (Enter /local/g09-source/g09/l301.exe)
 General basis read from cards:  (6D, 7F)
 Centers:   3  4
 S 4 1.0
     Exponent=  1.3010000000D+01 Coefficients=  1.9685000000D-02
     Exponent=  1.9620000000D+00 Coefficients=  1.3797700000D-01
     Exponent=  4.4460000000D-01 Coefficients=  4.7814800000D-01
     Exponent=  1.2200000000D-01 Coefficients=  5.0124000000D-01
 S 1 1.0
     Exponent=  1.2200000000D-01 Coefficients=  1.0000000000D+00
 S 1 1.0
     Exponent=  2.9740000000D-02 Coefficients=  1.0000000000D+00
 S 1 1.0
     Exponent=  7.2500000000D-03 Coefficients=  1.0000000000D+00
 P 1 1.0
     Exponent=  7.2700000000D-01 Coefficients=  1.0000000000D+00
 P 1 1.0
     Exponent=  1.4100000000D-01 Coefficients=  1.0000000000D+00
 P 1 1.0
     Exponent=  2.7300000000D-02 Coefficients=  1.0000000000D+00
 ****
 Centers:   1  2
 S 9 1.0
     Exponent=  6.6650000000D+03 Coefficients=  6.9200000000D-04
     Exponent=  1.0000000000D+03 Coefficients=  5.3290000000D-03
     Exponent=  2.2800000000D+02 Coefficients=  2.7077000000D-02
     Exponent=  6.4710000000D+01 Coefficients=  1.0171800000D-01
     Exponent=  2.1060000000D+01 Coefficients=  2.7474000000D-01
     Exponent=  7.4950000000D+00 Coefficients=  4.4856400000D-01
     Exponent=  2.7970000000D+00 Coefficients=  2.8507400000D-01
     Exponent=  5.2150000000D-01 Coefficients=  1.5204000000D-02
     Exponent=  1.5960000000D-01 Coefficients= -3.1910000000D-03
 S 9 1.0
     Exponent=  6.6650000000D+03 Coefficients= -1.4600000000D-04
     Exponent=  1.0000000000D+03 Coefficients= -1.1540000000D-03
     Exponent=  2.2800000000D+02 Coefficients= -5.7250000000D-03
     Exponent=  6.4710000000D+01 Coefficients= -2.3312000000D-02
     Exponent=  2.1060000000D+01 Coefficients= -6.3955000000D-02
     Exponent=  7.4950000000D+00 Coefficients= -1.4998100000D-01
     Exponent=  2.7970000000D+00 Coefficients= -1.2726200000D-01
     Exponent=  5.2150000000D-01 Coefficients=  5.4452900000D-01
     Exponent=  1.5960000000D-01 Coefficients=  5.8049600000D-01
 S 1 1.0
     Exponent=  1.5960000000D-01 Coefficients=  1.0000000000D+00
 S 1 1.0
     Exponent=  4.6900000000D-02 Coefficients=  1.0000000000D+00
 S 1 1.0
     Exponent=  1.3800000000D-02 Coefficients=  1.0000000000D+00
 P 4 1.0
     Exponent=  9.4390000000D+00 Coefficients=  3.8109000000D-02
     Exponent=  2.0020000000D+00 Coefficients=  2.0948000000D-01
     Exponent=  5.4560000000D-01 Coefficients=  5.0855700000D-01
     Exponent=  1.5170000000D-01 Coefficients=  4.6884200000D-01
 P 1 1.0
     Exponent=  1.5170000000D-01 Coefficients=  1.0000000000D+00
 P 1 1.0
     Exponent=  4.0410000000D-02 Coefficients=  1.0000000000D+00
 P 1 1.0
     Exponent=  1.0800000000D-02 Coefficients=  1.0000000000D+00
 D 1 1.0
     Exponent=  5.5000000000D-01 Coefficients=  1.0000000000D+00
 D 1 1.0
     Exponent=  1.5100000000D-01 Coefficients=  1.0000000000D+00
 D 1 1.0
     Exponent=  4.1500000000D-02 Coefficients=  1.0000000000D+00
 ****
 Ernie: Thresh=  0.10000D-02 Tol=  0.10000D-05 Strict=F.
 Ernie:  6 primitive shells out of 82 were deleted.
 AO basis set in the form of general basis input (Overlap normalization):
      1 0
 S   8 1.00       0.000000000000
      0.6665000000D+04  0.6911871665D-03
      0.1000000000D+04  0.5322577364D-02
      0.2280000000D+03  0.2704512777D-01
      0.6471000000D+02  0.1015883442D+00
      0.2106000000D+02  0.2743843617D+00
      0.7495000000D+01  0.4477328995D+00
      0.2797000000D+01  0.2843702133D+00
      0.5215000000D+00  0.1819701823D-01
 S   7 1.00       0.000000000000
      0.6665000000D+04  0.7733547404D-05
      0.2280000000D+03  0.2780721367D-03
      0.6471000000D+02 -0.2578756542D-02
      0.2106000000D+02 -0.8950876838D-02
      0.7495000000D+01 -0.1060588547D+00
      0.2797000000D+01 -0.1315176856D+00
      0.5215000000D+00  0.1099486598D+01
 S   1 1.00       0.000000000000
      0.1596000000D+00  0.1000000000D+01
 S   1 1.00       0.000000000000
      0.4690000000D-01  0.1000000000D+01
 S   1 1.00       0.000000000000
      0.1380000000D-01  0.1000000000D+01
 P   4 1.00       0.000000000000
      0.9439000000D+01  0.3810902127D-01
      0.2002000000D+01  0.2094801169D+00
      0.5456000000D+00  0.5085572839D+00
      0.1517000000D+00  0.4688422617D+00
 P   1 1.00       0.000000000000
      0.1517000000D+00  0.1000000000D+01
 P   1 1.00       0.000000000000
      0.4041000000D-01  0.1000000000D+01
 P   1 1.00       0.000000000000
      0.1080000000D-01  0.1000000000D+01
 D   1 1.00       0.000000000000
      0.5500000000D+00  0.1000000000D+01
 D   1 1.00       0.000000000000
      0.1510000000D+00  0.1000000000D+01
 D   1 1.00       0.000000000000
      0.4150000000D-01  0.1000000000D+01
 ****
      2 0
 S   8 1.00       0.000000000000
      0.6665000000D+04  0.6911871665D-03
      0.1000000000D+04  0.5322577364D-02
      0.2280000000D+03  0.2704512777D-01
      0.6471000000D+02  0.1015883442D+00
      0.2106000000D+02  0.2743843617D+00
      0.7495000000D+01  0.4477328995D+00
      0.2797000000D+01  0.2843702133D+00
      0.5215000000D+00  0.1819701823D-01
 S   7 1.00       0.000000000000
      0.6665000000D+04  0.7733547404D-05
      0.2280000000D+03  0.2780721367D-03
      0.6471000000D+02 -0.2578756542D-02
      0.2106000000D+02 -0.8950876838D-02
      0.7495000000D+01 -0.1060588547D+00
      0.2797000000D+01 -0.1315176856D+00
      0.5215000000D+00  0.1099486598D+01
 S   1 1.00       0.000000000000
      0.1596000000D+00  0.1000000000D+01
 S   1 1.00       0.000000000000
      0.4690000000D-01  0.1000000000D+01
 S   1 1.00       0.000000000000
      0.1380000000D-01  0.1000000000D+01
 P   4 1.00       0.000000000000
      0.9439000000D+01  0.3810902127D-01
      0.2002000000D+01  0.2094801169D+00
      0.5456000000D+00  0.5085572839D+00
      0.1517000000D+00  0.4688422617D+00
 P   1 1.00       0.000000000000
      0.1517000000D+00  0.1000000000D+01
 P   1 1.00       0.000000000000
      0.4041000000D-01  0.1000000000D+01
 P   1 1.00       0.000000000000
      0.1080000000D-01  0.1000000000D+01
 D   1 1.00       0.000000000000
      0.5500000000D+00  0.1000000000D+01
 D   1 1.00       0.000000000000
      0.1510000000D+00  0.1000000000D+01
 D   1 1.00       0.000000000000
      0.4150000000D-01  0.1000000000D+01
 ****
      3 0
 S   4 1.00       0.000000000000
      0.1301000000D+02  0.1968498999D-01
      0.1962000000D+01  0.1379769298D+00
      0.4446000000D+00  0.4781477569D+00
      0.1220000000D+00  0.5012397451D+00
 S   1 1.00       0.000000000000
      0.1220000000D+00  0.1000000000D+01
 S   1 1.00       0.000000000000
      0.2974000000D-01  0.1000000000D+01
 S   1 1.00       0.000000000000
      0.7250000000D-02  0.1000000000D+01
 P   1 1.00       0.000000000000
      0.7270000000D+00  0.1000000000D+01
 P   1 1.00       0.000000000000
      0.1410000000D+00  0.1000000000D+01
 P   1 1.00       0.000000000000
      0.2730000000D-01  0.1000000000D+01
 ****
      4 0
 S   4 1.00       0.000000000000
      0.1301000000D+02  0.1968498999D-01
      0.1962000000D+01  0.1379769298D+00
      0.4446000000D+00  0.4781477569D+00
      0.1220000000D+00  0.5012397451D+00
 S   1 1.00       0.000000000000
      0.1220000000D+00  0.1000000000D+01
 S   1 1.00       0.000000000000
      0.2974000000D-01  0.1000000000D+01
 S   1 1.00       0.000000000000
      0.7250000000D-02  0.1000000000D+01
 P   1 1.00       0.000000000000
      0.7270000000D+00  0.1000000000D+01
 P   1 1.00       0.000000000000
      0.1410000000D+00  0.1000000000D+01
 P   1 1.00       0.000000000000
      0.2730000000D-01  0.1000000000D+01
 ****

 Integral buffers will be    131072 words long.
 Raffenetti 2 integral format.
 Two-electron integral symmetry is turned off.
    96 basis functions,   146 primitive gaussians,    96 cartesian basis functions
     8 alpha electrons        7 beta electrons
       nuclear repulsion energy        22.2858786078 Hartrees.
 IExCor= 4639 DFT=T Ex+Corr=wB97XD ExCW=0 ScaHFX=  1.000000
 ScaDFX=  1.000000  1.000000  1.000000  1.000000 ScalE2=  1.000000  1.000000
 IRadAn=      0 IRanWt=     -1 IRanGd=            0 ICorTp=0
  HFx wShort=  0.000000 wLong=  0.200000 cFull=  0.222036 cShort=  0.000000 cLong=  0.777964
  DFx wShort=  0.000000 wLong=  0.200000 cFull=  0.000000 cShort=  0.000000 cLong=  1.000000
 NAtoms=    4 NActive=    4 NUniq=    4 SFac= 7.50D-01 NAtFMM=   80 NAOKFM=F Big=F
 R6Disp: Dispersion energy =        -0.0003097994 Hartrees.
 Nuclear repulsion after empirical dispersion term =       22.2855688083 Hartrees.
 Leave Link  301 at Tue Jun 13 17:05:09 2023, MaxMem= 1966080000 cpu:       0.3
 (Enter /local/g09-source/g09/l302.exe)
 NPDir=0 NMtPBC=     1 NCelOv=     1 NCel=       1 NClECP=     1 NCelD=      1
         NCelK=      1 NCelE2=     1 NClLst=     1 CellRange=     0.0.
 One-electron integrals computed using PRISM.
 NBasis=    96 RedAO= T  NBF=    96
 NBsUse=    95 1.00D-06 NBFU=    95
 Precomputing XC quadrature grid using
 IXCGrd= 2 IRadAn=           0 IRanWt=          -1 IRanGd=           0 AccXCQ= 1.00D-10.
 NRdTot=     266 NPtTot=       34180 NUsed=       36107 NTot=       36139
 NSgBfM=    96    96    96    96    96 NAtAll=     4     4.
 Leave Link  302 at Tue Jun 13 17:05:09 2023, MaxMem= 1966080000 cpu:       1.2
 (Enter /local/g09-source/g09/l303.exe)
 DipDrv:  MaxL=1.
 Leave Link  303 at Tue Jun 13 17:05:09 2023, MaxMem= 1966080000 cpu:       0.2
 (Enter /local/g09-source/g09/l401.exe)
 Initial guess read from the checkpoint file:  an.chk
 B after Tr=    -0.000067    0.000303    0.000178
         Rot=    1.000000   -0.000023    0.000254   -0.000025 Ang=   0.03 deg.
 Guess basis will be translated and rotated to current coordinates.
 Initial guess <Sx>= 0.0000 <Sy>= 0.0000 <Sz>= 0.5000 <S**2>= 0.7627 S= 0.5063
 Leave Link  401 at Tue Jun 13 17:05:09 2023, MaxMem= 1966080000 cpu:       0.7
 (Enter /local/g09-source/g09/l502.exe)
 UHF open shell SCF:
 Requested convergence on RMS density matrix=1.00D-07 within 200 cycles.
 Requested convergence on MAX density matrix=1.00D-05.
 Requested convergence on             energy=1.00D-05.
 No special actions if energy rises.
 Using DIIS extrapolation, IDIIS=  1040.
 Two-electron integral symmetry not used.
        36058 words used for storage of precomputed grid.
 IEnd=      106988 IEndB=      106988 NGot=  1966080000 MDV=  1966022725
 LenX=  1966022725 LenY=  1966013068
 Fock matrices will be formed incrementally for  20 cycles.

 Cycle   1  Pass 1  IDiag  1:
 FoFJK:  IHMeth= 1 ICntrl=     0 DoSepK=T KAlg= 1 I1Cent= 0 FoldK=F
 FoFCou: FMM=F IPFlag=           0 FMFlag=      100000 FMFlg1=           0
         NFxFlg=           0 DoJE=T BraDBF=F KetDBF=F FulRan=T
         Omega=  0.000000  0.000000  1.000000  0.000000  0.000000 ICntrl=     500 IOpCl=  0
         NMat0=    1 NMatS0=    1 NMatT0=    0 NMatD0=    1 NMtDS0=    0 NMtDT0=    0
         I1Cent=           0 NGrid=           0.
 Symmetry not used in FoFCou.
 E= -77.2485333273661    
 DIIS: error= 4.86D-04 at cycle   1 NSaved=   1.
 NSaved= 1 IEnMin= 1 EnMin= -77.2485333273661     IErMin= 1 ErrMin= 4.86D-04
 ErrMax= 4.86D-04 EMaxC= 1.00D-01 BMatC= 1.50D-04 BMatP= 1.50D-04
 IDIUse=3 WtCom= 9.95D-01 WtEn= 4.86D-03
 Coeff-Com:  0.100D+01
 Coeff-En:   0.100D+01
 Coeff:      0.100D+01
 Gap=     0.092 Goal=   None    Shift=    0.000
 Gap=     0.183 Goal=   None    Shift=    0.000
 RMSDP=8.68D-04 MaxDP=1.41D-02              OVMax= 3.73D-03

 Cycle   2  Pass 1  IDiag  1:
 RMSU=  5.85D-04    CP:  1.01D+00
 FoFJK:  IHMeth= 1 ICntrl=     0 DoSepK=T KAlg= 1 I1Cent= 0 FoldK=F
 E= -77.2485873950890     Delta-E=       -0.000054067723 Rises=F Damp=F
 DIIS: error= 2.62D-04 at cycle   2 NSaved=   2.
 NSaved= 2 IEnMin= 2 EnMin= -77.2485873950890     IErMin= 2 ErrMin= 2.62D-04
 ErrMax= 2.62D-04 EMaxC= 1.00D-01 BMatC= 1.53D-05 BMatP= 1.50D-04
 IDIUse=3 WtCom= 9.97D-01 WtEn= 2.62D-03
 Coeff-Com:  0.799D-01 0.920D+00
 Coeff-En:   0.000D+00 0.100D+01
 Coeff:      0.797D-01 0.920D+00
 Gap=     0.090 Goal=   None    Shift=    0.000
 Gap=     0.181 Goal=   None    Shift=    0.000
 RMSDP=1.27D-04 MaxDP=2.47D-03 DE=-5.41D-05 OVMax= 3.09D-03

 Cycle   3  Pass 1  IDiag  1:
 RMSU=  8.13D-05    CP:  1.01D+00  1.09D+00
 FoFJK:  IHMeth= 1 ICntrl=     0 DoSepK=T KAlg= 1 I1Cent= 0 FoldK=F
 E= -77.2485936924349     Delta-E=       -0.000006297346 Rises=F Damp=F
 DIIS: error= 1.27D-04 at cycle   3 NSaved=   3.
 NSaved= 3 IEnMin= 3 EnMin= -77.2485936924349     IErMin= 3 ErrMin= 1.27D-04
 ErrMax= 1.27D-04 EMaxC= 1.00D-01 BMatC= 6.84D-06 BMatP= 1.53D-05
 IDIUse=3 WtCom= 9.99D-01 WtEn= 1.27D-03
 Coeff-Com: -0.608D-01 0.374D+00 0.687D+00
 Coeff-En:   0.000D+00 0.000D+00 0.100D+01
 Coeff:     -0.608D-01 0.374D+00 0.687D+00
 Gap=     0.091 Goal=   None    Shift=    0.000
 Gap=     0.182 Goal=   None    Shift=    0.000
 RMSDP=4.48D-05 MaxDP=8.92D-04 DE=-6.30D-06 OVMax= 1.28D-03

 Cycle   4  Pass 1  IDiag  1:
 RMSU=  2.65D-05    CP:  1.01D+00  1.12D+00  9.90D-01
 FoFJK:  IHMeth= 1 ICntrl=     0 DoSepK=T KAlg= 1 I1Cent= 0 FoldK=F
 E= -77.2485968327772     Delta-E=       -0.000003140342 Rises=F Damp=F
 DIIS: error= 6.08D-05 at cycle   4 NSaved=   4.
 NSaved= 4 IEnMin= 4 EnMin= -77.2485968327772     IErMin= 4 ErrMin= 6.08D-05
 ErrMax= 6.08D-05 EMaxC= 1.00D-01 BMatC= 5.75D-07 BMatP= 6.84D-06
 IDIUse=1 WtCom= 1.00D+00 WtEn= 0.00D+00
 Coeff-Com: -0.174D-01-0.178D-01 0.129D+00 0.906D+00
 Coeff:     -0.174D-01-0.178D-01 0.129D+00 0.906D+00
 Gap=     0.091 Goal=   None    Shift=    0.000
 Gap=     0.182 Goal=   None    Shift=    0.000
 RMSDP=2.31D-05 MaxDP=4.32D-04 DE=-3.14D-06 OVMax= 1.28D-03

 Cycle   5  Pass 1  IDiag  1:
 RMSU=  1.19D-05    CP:  1.01D+00  1.12D+00  1.14D+00  1.26D+00
 FoFJK:  IHMeth= 1 ICntrl=     0 DoSepK=T KAlg= 1 I1Cent= 0 FoldK=F
 E= -77.2485976195488     Delta-E=       -0.000000786772 Rises=F Damp=F
 DIIS: error= 3.38D-05 at cycle   5 NSaved=   5.
 NSaved= 5 IEnMin= 5 EnMin= -77.2485976195488     IErMin= 5 ErrMin= 3.38D-05
 ErrMax= 3.38D-05 EMaxC= 1.00D-01 BMatC= 2.54D-07 BMatP= 5.75D-07
 IDIUse=1 WtCom= 1.00D+00 WtEn= 0.00D+00
 Coeff-Com:  0.948D-02-0.106D+00-0.128D+00 0.363D+00 0.861D+00
 Coeff:      0.948D-02-0.106D+00-0.128D+00 0.363D+00 0.861D+00
 Gap=     0.091 Goal=   None    Shift=    0.000
 Gap=     0.182 Goal=   None    Shift=    0.000
 RMSDP=1.76D-05 MaxDP=2.63D-04 DE=-7.87D-07 OVMax= 1.08D-03

 Cycle   6  Pass 1  IDiag  1:
 RMSU=  7.80D-06    CP:  1.01D+00  1.12D+00  1.22D+00  1.47D+00  1.49D+00
 FoFJK:  IHMeth= 1 ICntrl=     0 DoSepK=T KAlg= 1 I1Cent= 0 FoldK=F
 E= -77.2485980285445     Delta-E=       -0.000000408996 Rises=F Damp=F
 DIIS: error= 2.32D-05 at cycle   6 NSaved=   6.
 NSaved= 6 IEnMin= 6 EnMin= -77.2485980285445     IErMin= 6 ErrMin= 2.32D-05
 ErrMax= 2.32D-05 EMaxC= 1.00D-01 BMatC= 5.12D-08 BMatP= 2.54D-07
 IDIUse=1 WtCom= 1.00D+00 WtEn= 0.00D+00
 Coeff-Com:  0.674D-02-0.706D-02-0.644D-01-0.259D+00 0.114D+00 0.121D+01
 Coeff:      0.674D-02-0.706D-02-0.644D-01-0.259D+00 0.114D+00 0.121D+01
 Gap=     0.091 Goal=   None    Shift=    0.000
 Gap=     0.182 Goal=   None    Shift=    0.000
 RMSDP=1.63D-05 MaxDP=3.80D-04 DE=-4.09D-07 OVMax= 1.10D-03

 Cycle   7  Pass 1  IDiag  1:
 RMSU=  6.05D-06    CP:  1.01D+00  1.12D+00  1.28D+00  1.62D+00  2.12D+00
                    CP:  1.77D+00
 FoFJK:  IHMeth= 1 ICntrl=     0 DoSepK=T KAlg= 1 I1Cent= 0 FoldK=F
 E= -77.2485982282576     Delta-E=       -0.000000199713 Rises=F Damp=F
 DIIS: error= 1.14D-05 at cycle   7 NSaved=   7.
 NSaved= 7 IEnMin= 7 EnMin= -77.2485982282576     IErMin= 7 ErrMin= 1.14D-05
 ErrMax= 1.14D-05 EMaxC= 1.00D-01 BMatC= 8.47D-09 BMatP= 5.12D-08
 IDIUse=1 WtCom= 1.00D+00 WtEn= 0.00D+00
 Coeff-Com: -0.298D-02 0.249D-01 0.336D-01-0.621D-01-0.175D+00-0.119D+00
 Coeff-Com:  0.130D+01
 Coeff:     -0.298D-02 0.249D-01 0.336D-01-0.621D-01-0.175D+00-0.119D+00
 Coeff:      0.130D+01
 Gap=     0.091 Goal=   None    Shift=    0.000
 Gap=     0.182 Goal=   None    Shift=    0.000
 RMSDP=1.19D-05 MaxDP=3.99D-04 DE=-2.00D-07 OVMax= 6.56D-04

 Cycle   8  Pass 1  IDiag  1:
 RMSU=  2.97D-06    CP:  1.01D+00  1.12D+00  1.30D+00  1.64D+00  2.41D+00
                    CP:  2.37D+00  2.19D+00
 FoFJK:  IHMeth= 1 ICntrl=     0 DoSepK=T KAlg= 1 I1Cent= 0 FoldK=F
 E= -77.2485982816227     Delta-E=       -0.000000053365 Rises=F Damp=F
 DIIS: error= 5.49D-06 at cycle   8 NSaved=   8.
 NSaved= 8 IEnMin= 8 EnMin= -77.2485982816227     IErMin= 8 ErrMin= 5.49D-06
 ErrMax= 5.49D-06 EMaxC= 1.00D-01 BMatC= 1.81D-09 BMatP= 8.47D-09
 IDIUse=1 WtCom= 1.00D+00 WtEn= 0.00D+00
 Coeff-Com: -0.700D-03-0.310D-02 0.625D-02 0.572D-01 0.142D-01-0.215D+00
 Coeff-Com: -0.284D+00 0.142D+01
 Coeff:     -0.700D-03-0.310D-02 0.625D-02 0.572D-01 0.142D-01-0.215D+00
 Coeff:     -0.284D+00 0.142D+01
 Gap=     0.091 Goal=   None    Shift=    0.000
 Gap=     0.182 Goal=   None    Shift=    0.000
 RMSDP=1.06D-05 MaxDP=3.78D-04 DE=-5.34D-08 OVMax= 4.10D-04

 Cycle   9  Pass 1  IDiag  1:
 RMSU=  3.21D-06    CP:  1.01D+00  1.12D+00  1.31D+00  1.63D+00  2.52D+00
                    CP:  2.76D+00  3.00D+00  2.39D+00
 FoFJK:  IHMeth= 1 ICntrl=     0 DoSepK=T KAlg= 1 I1Cent= 0 FoldK=F
 E= -77.2485982970729     Delta-E=       -0.000000015450 Rises=F Damp=F
 DIIS: error= 2.37D-06 at cycle   9 NSaved=   9.
 NSaved= 9 IEnMin= 9 EnMin= -77.2485982970729     IErMin= 9 ErrMin= 2.37D-06
 ErrMax= 2.37D-06 EMaxC= 1.00D-01 BMatC= 3.97D-10 BMatP= 1.81D-09
 IDIUse=1 WtCom= 1.00D+00 WtEn= 0.00D+00
 Coeff-Com:  0.911D-03-0.435D-02-0.990D-02-0.833D-02 0.264D-01 0.109D+00
 Coeff-Com: -0.140D+00-0.656D+00 0.168D+01
 Coeff:      0.911D-03-0.435D-02-0.990D-02-0.833D-02 0.264D-01 0.109D+00
 Coeff:     -0.140D+00-0.656D+00 0.168D+01
 Gap=     0.091 Goal=   None    Shift=    0.000
 Gap=     0.182 Goal=   None    Shift=    0.000
 RMSDP=9.62D-06 MaxDP=3.74D-04 DE=-1.55D-08 OVMax= 2.54D-04

 Cycle  10  Pass 1  IDiag  1:
 RMSU=  3.00D-06    CP:  1.01D+00  1.12D+00  1.31D+00  1.59D+00  2.53D+00
                    CP:  3.00D+00  3.00D+00  3.00D+00  3.00D+00
 FoFJK:  IHMeth= 1 ICntrl=     0 DoSepK=T KAlg= 1 I1Cent= 0 FoldK=F
 E= -77.2485983010184     Delta-E=       -0.000000003945 Rises=F Damp=F
 DIIS: error= 7.20D-07 at cycle  10 NSaved=  10.
 NSaved=10 IEnMin=10 EnMin= -77.2485983010184     IErMin=10 ErrMin= 7.20D-07
 ErrMax= 7.20D-07 EMaxC= 1.00D-01 BMatC= 5.97D-11 BMatP= 3.97D-10
 IDIUse=1 WtCom= 1.00D+00 WtEn= 0.00D+00
 Coeff-Com: -0.308D-03 0.288D-02 0.359D-02-0.678D-02-0.189D-01-0.877D-02
 Coeff-Com:  0.131D+00 0.511D-02-0.757D+00 0.165D+01
 Coeff:     -0.308D-03 0.288D-02 0.359D-02-0.678D-02-0.189D-01-0.877D-02
 Coeff:      0.131D+00 0.511D-02-0.757D+00 0.165D+01
 Gap=     0.091 Goal=   None    Shift=    0.000
 Gap=     0.182 Goal=   None    Shift=    0.000
 RMSDP=5.61D-06 MaxDP=2.08D-04 DE=-3.95D-09 OVMax= 1.02D-04

 Cycle  11  Pass 1  IDiag  1:
 RMSU=  3.91D-06    CP:  1.01D+00  1.12D+00  1.31D+00  1.55D+00  2.51D+00
                    CP:  3.00D+00  3.00D+00  3.00D+00  3.00D+00  1.97D+00
 FoFJK:  IHMeth= 1 ICntrl=     0 DoSepK=T KAlg= 1 I1Cent= 0 FoldK=F
 E= -77.2485983015171     Delta-E=       -0.000000000499 Rises=F Damp=F
 DIIS: error= 2.01D-07 at cycle  11 NSaved=  11.
 NSaved=11 IEnMin=11 EnMin= -77.2485983015171     IErMin=11 ErrMin= 2.01D-07
 ErrMax= 2.01D-07 EMaxC= 1.00D-01 BMatC= 7.01D-12 BMatP= 5.97D-11
 IDIUse=1 WtCom= 1.00D+00 WtEn= 0.00D+00
 Coeff-Com:  0.285D-04-0.784D-03-0.361D-03 0.358D-02 0.556D-02-0.928D-02
 Coeff-Com: -0.384D-01 0.646D-01 0.165D+00-0.763D+00 0.157D+01
 Coeff:      0.285D-04-0.784D-03-0.361D-03 0.358D-02 0.556D-02-0.928D-02
 Coeff:     -0.384D-01 0.646D-01 0.165D+00-0.763D+00 0.157D+01
 Gap=     0.091 Goal=   None    Shift=    0.000
 Gap=     0.182 Goal=   None    Shift=    0.000
 RMSDP=1.67D-06 MaxDP=6.08D-05 DE=-4.99D-10 OVMax= 2.27D-05

 Cycle  12  Pass 1  IDiag  1:
 RMSU=  7.83D-07    CP:  1.01D+00  1.12D+00  1.31D+00  1.54D+00  2.50D+00
                    CP:  3.00D+00  3.00D+00  3.00D+00  3.00D+00  2.20D+00
                    CP:  1.25D+00
 FoFJK:  IHMeth= 1 ICntrl=     0 DoSepK=T KAlg= 1 I1Cent= 0 FoldK=F
 E= -77.2485983015563     Delta-E=       -0.000000000039 Rises=F Damp=F
 DIIS: error= 9.18D-08 at cycle  12 NSaved=  12.
 NSaved=12 IEnMin=12 EnMin= -77.2485983015563     IErMin=12 ErrMin= 9.18D-08
 ErrMax= 9.18D-08 EMaxC= 1.00D-01 BMatC= 1.28D-12 BMatP= 7.01D-12
 IDIUse=1 WtCom= 1.00D+00 WtEn= 0.00D+00
 Coeff-Com:  0.362D-04-0.168D-03-0.398D-03-0.709D-04 0.983D-03 0.446D-02
 Coeff-Com: -0.615D-02-0.293D-01 0.798D-01-0.261D-01-0.555D+00 0.153D+01
 Coeff:      0.362D-04-0.168D-03-0.398D-03-0.709D-04 0.983D-03 0.446D-02
 Coeff:     -0.615D-02-0.293D-01 0.798D-01-0.261D-01-0.555D+00 0.153D+01
 Gap=     0.091 Goal=   None    Shift=    0.000
 Gap=     0.182 Goal=   None    Shift=    0.000
 RMSDP=6.84D-07 MaxDP=2.60D-05 DE=-3.92D-11 OVMax= 8.92D-06

 Cycle  13  Pass 1  IDiag  1:
 RMSU=  1.35D-07    CP:  1.01D+00  1.12D+00  1.30D+00  1.54D+00  2.49D+00
                    CP:  3.00D+00  3.00D+00  3.00D+00  3.00D+00  2.20D+00
                    CP:  1.25D+00  1.76D+00
 FoFJK:  IHMeth= 1 ICntrl=     0 DoSepK=T KAlg= 1 I1Cent= 0 FoldK=F
 E= -77.2485983015631     Delta-E=       -0.000000000007 Rises=F Damp=F
 DIIS: error= 3.09D-08 at cycle  13 NSaved=  13.
 NSaved=13 IEnMin=13 EnMin= -77.2485983015631     IErMin=13 ErrMin= 3.09D-08
 ErrMax= 3.09D-08 EMaxC= 1.00D-01 BMatC= 2.08D-13 BMatP= 1.28D-12
 IDIUse=1 WtCom= 1.00D+00 WtEn= 0.00D+00
 Coeff-Com: -0.173D-04 0.201D-03 0.185D-03-0.711D-03-0.130D-02 0.554D-03
 Coeff-Com:  0.939D-02-0.616D-02-0.474D-01 0.145D+00-0.148D+00-0.416D+00
 Coeff-Com:  0.146D+01
 Coeff:     -0.173D-04 0.201D-03 0.185D-03-0.711D-03-0.130D-02 0.554D-03
 Coeff:      0.939D-02-0.616D-02-0.474D-01 0.145D+00-0.148D+00-0.416D+00
 Coeff:      0.146D+01
 Gap=     0.091 Goal=   None    Shift=    0.000
 Gap=     0.182 Goal=   None    Shift=    0.000
 RMSDP=4.73D-07 MaxDP=1.89D-05 DE=-6.82D-12 OVMax= 3.68D-06

 Cycle  14  Pass 1  IDiag  1:
 RMSU=  3.16D-08    CP:  1.01D+00  1.12D+00  1.30D+00  1.54D+00  2.49D+00
                    CP:  3.00D+00  3.00D+00  3.00D+00  3.00D+00  2.13D+00
                    CP:  1.19D+00  2.12D+00  1.99D+00
 FoFJK:  IHMeth= 1 ICntrl=     0 DoSepK=T KAlg= 1 I1Cent= 0 FoldK=F
 E= -77.2485983015643     Delta-E=       -0.000000000001 Rises=F Damp=F
 DIIS: error= 8.20D-09 at cycle  14 NSaved=  14.
 NSaved=14 IEnMin=14 EnMin= -77.2485983015643     IErMin=14 ErrMin= 8.20D-09
 ErrMax= 8.20D-09 EMaxC= 1.00D-01 BMatC= 2.64D-14 BMatP= 2.08D-13
 IDIUse=1 WtCom= 1.00D+00 WtEn= 0.00D+00
 Coeff-Com: -0.351D-05 0.944D-05 0.405D-04 0.354D-04-0.601D-04-0.548D-03
 Coeff-Com:  0.290D-03 0.366D-02-0.537D-02-0.931D-02 0.840D-01-0.163D+00
 Coeff-Com: -0.153D+00 0.124D+01
 Coeff:     -0.351D-05 0.944D-05 0.405D-04 0.354D-04-0.601D-04-0.548D-03
 Coeff:      0.290D-03 0.366D-02-0.537D-02-0.931D-02 0.840D-01-0.163D+00
 Coeff:     -0.153D+00 0.124D+01
 Gap=     0.091 Goal=   None    Shift=    0.000
 Gap=     0.182 Goal=   None    Shift=    0.000
 RMSDP=2.15D-07 MaxDP=8.85D-06 DE=-1.14D-12 OVMax= 1.15D-06

 Cycle  15  Pass 1  IDiag  1:
 RMSU=  6.25D-09    CP:  1.01D+00  1.12D+00  1.30D+00  1.54D+00  2.49D+00
                    CP:  3.00D+00  3.00D+00  3.00D+00  3.00D+00  2.10D+00
                    CP:  1.16D+00  2.20D+00  2.37D+00  1.93D+00
 FoFJK:  IHMeth= 1 ICntrl=     0 DoSepK=T KAlg= 1 I1Cent= 0 FoldK=F
 E= -77.2485983015642     Delta-E=        0.000000000000 Rises=F Damp=F
 DIIS: error= 3.45D-09 at cycle  15 NSaved=  15.
 NSaved=15 IEnMin=14 EnMin= -77.2485983015643     IErMin=15 ErrMin= 3.45D-09
 ErrMax= 3.45D-09 EMaxC= 1.00D-01 BMatC= 4.42D-15 BMatP= 2.64D-14
 IDIUse=1 WtCom= 1.00D+00 WtEn= 0.00D+00
 Coeff-Com:  0.323D-05-0.340D-04-0.351D-04 0.120D-03 0.199D-03 0.653D-05
 Coeff-Com: -0.157D-02 0.324D-03 0.936D-02-0.242D-01 0.162D-01 0.952D-01
 Coeff-Com: -0.238D+00-0.177D+00 0.132D+01
 Coeff:      0.323D-05-0.340D-04-0.351D-04 0.120D-03 0.199D-03 0.653D-05
 Coeff:     -0.157D-02 0.324D-03 0.936D-02-0.242D-01 0.162D-01 0.952D-01
 Coeff:     -0.238D+00-0.177D+00 0.132D+01
 Gap=     0.091 Goal=   None    Shift=    0.000
 Gap=     0.182 Goal=   None    Shift=    0.000
 RMSDP=8.91D-08 MaxDP=3.45D-06 DE= 2.84D-14 OVMax= 4.58D-07

 SCF Done:  E(UwB97XD) =  -77.2485983016     A.U. after   15 cycles
             Convg  =    0.8911D-07             -V/T =  2.0121
 <Sx>= 0.0000 <Sy>= 0.0000 <Sz>= 0.5000 <S**2>= 0.7625 S= 0.5062
 <L.S>= 0.000000000000E+00
 KE= 7.632709678530D+01 PE=-2.269112777958D+02 EE= 5.105001390061D+01
 Annihilation of the first spin contaminant:
 S**2 before annihilation     0.7625,   after     0.7501
 Leave Link  502 at Tue Jun 13 17:05:23 2023, MaxMem= 1966080000 cpu:      79.2
 (Enter /local/g09-source/g09/l601.exe)
 Copying SCF densities to generalized density rwf, IOpCl= 1 IROHF=0.

 **********************************************************************

            Population analysis using the SCF density.

 **********************************************************************

 Alpha  occ. eigenvalues --  -10.09096 -10.06472  -0.59598  -0.36905  -0.26617
 Alpha  occ. eigenvalues --   -0.13115  -0.11492  -0.02093
 Alpha virt. eigenvalues --    0.06984   0.07209   0.08666   0.10360   0.10733
 Alpha virt. eigenvalues --    0.11080   0.12128   0.12724   0.12888   0.15857
 Alpha virt. eigenvalues --    0.17364   0.17872   0.19153   0.19746   0.19922
 Alpha virt. eigenvalues --    0.20674   0.20993   0.23241   0.27099   0.27158
 Alpha virt. eigenvalues --    0.28817   0.30371   0.30844   0.30898   0.32107
 Alpha virt. eigenvalues --    0.32526   0.33264   0.33794   0.34168   0.34733
 Alpha virt. eigenvalues --    0.35562   0.36284   0.37254   0.38297   0.39704
 Alpha virt. eigenvalues --    0.40700   0.46506   0.49850   0.51026   0.53523
 Alpha virt. eigenvalues --    0.60106   0.61474   0.62728   0.66617   0.68165
 Alpha virt. eigenvalues --    0.70195   0.71464   0.75860   0.78421   0.79788
 Alpha virt. eigenvalues --    0.80551   0.83635   0.87268   0.88103   0.88974
 Alpha virt. eigenvalues --    0.90281   0.91170   0.94896   1.01278   1.06501
 Alpha virt. eigenvalues --    1.12661   1.12805   1.18745   1.31424   1.44027
 Alpha virt. eigenvalues --    1.57549   1.66089   1.68346   1.70588   1.79476
 Alpha virt. eigenvalues --    1.82408   1.85047   1.95501   1.96904   1.97730
 Alpha virt. eigenvalues --    2.02437   2.22320   2.24007   2.31503   2.33728
 Alpha virt. eigenvalues --    2.37043   2.56709   2.70083   2.80628   2.91065
 Alpha virt. eigenvalues --    5.38204   5.82975
  Beta  occ. eigenvalues --  -10.09304 -10.05464  -0.57781  -0.34644  -0.24751
  Beta  occ. eigenvalues --   -0.10998  -0.10416
  Beta virt. eigenvalues --    0.07830   0.07981   0.09606   0.10975   0.11596
  Beta virt. eigenvalues --    0.12803   0.12827   0.14134   0.14393   0.16777
  Beta virt. eigenvalues --    0.19012   0.19360   0.20636   0.20961   0.21082
  Beta virt. eigenvalues --    0.21577   0.22296   0.24031   0.25074   0.27260
  Beta virt. eigenvalues --    0.27628   0.29290   0.30515   0.31057   0.31497
  Beta virt. eigenvalues --    0.32336   0.32971   0.33720   0.34435   0.34634
  Beta virt. eigenvalues --    0.35266   0.36260   0.36506   0.38424   0.38765
  Beta virt. eigenvalues --    0.40233   0.41792   0.47294   0.50402   0.51263
  Beta virt. eigenvalues --    0.55509   0.60538   0.61702   0.62776   0.67035
  Beta virt. eigenvalues --    0.68575   0.70302   0.72174   0.75553   0.78510
  Beta virt. eigenvalues --    0.80586   0.81247   0.84054   0.88067   0.88237
  Beta virt. eigenvalues --    0.89107   0.91182   0.91914   0.95898   1.01632
  Beta virt. eigenvalues --    1.06711   1.13397   1.15491   1.19093   1.31699
  Beta virt. eigenvalues --    1.44594   1.58129   1.66638   1.69042   1.71422
  Beta virt. eigenvalues --    1.81873   1.85714   1.89210   1.96977   1.98194
  Beta virt. eigenvalues --    1.99013   2.03287   2.23456   2.25218   2.32483
  Beta virt. eigenvalues --    2.35014   2.37809   2.57805   2.71610   2.81577
  Beta virt. eigenvalues --    2.92178   5.40348   5.82893
     Alpha Molecular Orbital Coefficients:
                           1         2         3         4         5
                           O         O         O         O         O
     Eigenvalues --  -.10090964402436E+02 -.10064716177373E+02 -.59597985033803E+00 -.36905190805300E+00 -.26617404176636E+00
   1 1   C  1S       0.16224523237747E-01 0.99809666560188E+00 -.13797893520598E+00 -.12803064505864E+00 0.55365301180006E-02
   2        2S       0.59684865496799E-03 0.12914802425002E-01 0.26711931294474E+00 0.26172314197290E+00 -.11641334432726E-01
   3        3S       -.10914965824454E-01 -.11792708975862E-01 0.16484746370977E+00 0.60946889900562E+00 -.74202218917937E-01
   4        4S       0.12993430835949E-01 0.21920533026666E-02 0.76992599283544E-01 0.68170398676403E-01 -.18201483952101E-01
   5        5S       0.21669463901175E-02 -.13411437487109E-01 -.50406154875967E-01 -.20149990459188E-01 -.11333311702933E-01
   6        6PX      0.99497308207454E-04 0.30444537837330E-03 0.33202339765751E-01 0.20280824246817E-02 0.24177340271527E+00
   7        6PY      0.17338023840521E-03 0.74580577261484E-03 0.58434617555108E-01 0.21679704542019E-01 -.13227184223777E+00
   8        6PZ      0.73697529186661E-03 0.30693498576974E-02 0.24909303381796E+00 0.90031805662625E-01 0.81309033076252E-02
   9        7PX      -.71638876178558E-03 -.14107623695803E-02 -.97527059962245E-02 -.14192662960897E-02 -.87409216319938E-01
  10        7PY      -.11444498826387E-02 -.26136675815750E-02 -.33429740659690E-01 0.34070427166746E-01 0.43624112351872E-01
  11        7PZ      -.52906317834863E-02 -.11453312967825E-01 -.12696090416329E+00 0.11625921308262E+00 -.22458233763957E-01
  12        8PX      -.83500426095545E-04 0.43848353082044E-03 0.13215648430289E-02 0.45265088267886E-01 -.29596534804502E-02
  13        8PY      0.57038987840123E-03 0.54497325424794E-03 -.83002775122480E-02 -.37084832720487E-01 -.28021466785131E-02
  14        8PZ      0.29593006856858E-02 0.27074815354728E-02 -.16443700743827E-01 0.12765941299847E-01 -.53947159970862E-02
  15        9PX      0.16526664349049E-03 -.76943462431794E-04 -.13579951592194E-02 0.41738818164216E-03 0.18874051043895E-02
  16        9PY      0.70882829560281E-04 -.20463960464790E-03 -.15805987147099E-02 -.12930045406024E-02 -.19406246793984E-02
  17        9PZ      0.14464651583870E-03 -.95484285614701E-03 -.63935740976235E-02 -.39711618722747E-02 -.18245131988548E-02
  18       10XX      -.87493944081025E-04 -.66222254010039E-02 -.79731255944018E-02 -.27881684458281E-02 0.37077369423164E-02
  19       10YY      -.91811991614821E-04 -.68105852169007E-02 -.11738530772396E-01 -.66059354349154E-02 -.43437081216991E-02
  20       10ZZ      -.68993599733644E-04 -.61720350268157E-02 0.11357273189887E-01 -.87206260994404E-02 0.13966045192183E-02
  21       10XY      -.64692072458463E-05 -.17508219286544E-03 -.30474978807265E-02 -.42113487134014E-02 0.32006150788877E-02
  22       10XZ      -.12130573089065E-05 0.12525219561779E-03 0.47191926460549E-02 -.13429387192250E-02 0.18628330672135E-01
  23       10YZ      0.15546716365380E-06 0.19959403667800E-03 0.66277558708967E-02 -.13564006407121E-03 -.97722475107447E-02
  24       11XX      -.74689076164291E-03 0.11264843201948E-02 -.15350571061307E-01 -.17419005577982E-01 -.50847502546723E-02
  25       11YY      -.71084003969753E-03 0.11900210186411E-02 -.20283962909953E-01 -.88525192825228E-02 0.11984338189566E-02
  26       11ZZ      -.15574769592915E-02 -.19900090125821E-02 -.37537776099251E-01 0.20530009255681E-01 -.37334024782929E-02
  27       11XY      0.51469668495135E-04 0.63965210475636E-04 -.23226597789114E-02 0.45122644668062E-02 -.31007185625895E-02
  28       11XZ      -.10071278248050E-03 -.49928929117210E-03 0.75579492874634E-03 -.31439951444484E-02 -.19356819321010E-01
  29       11YZ      -.21119762345886E-03 -.88966130704574E-03 -.65506967642802E-02 0.10578908032260E-01 0.11367825977808E-01
  30       12XX      -.96386999235432E-03 0.27874474600823E-02 -.69120275277145E-02 -.51393379378270E-02 -.40874808460153E-02
  31       12YY      -.94334886877219E-03 0.27200763993033E-02 -.36899199102863E-02 -.16870181889698E-01 0.12770168774231E-02
  32       12ZZ      -.60377012819075E-03 0.34985006664417E-02 -.91437570676175E-02 -.41763673182545E-02 -.14454239069948E-02
  33       12XY      -.18425293831034E-04 -.43855783605573E-04 0.33276505823427E-02 -.30648646389046E-02 0.62448268322878E-03
  34       12XZ      -.56001103340178E-04 0.15514374285876E-03 -.10305762139570E-02 0.14085301905628E-01 -.46481957544740E-02
  35       12YZ      0.52477649174130E-04 0.19738495800346E-03 -.30361172128250E-02 -.66673295147868E-02 0.10262632364194E-02
  36 2   C  1S       0.99856868648326E+00 -.16320369563397E-01 -.17008743576726E+00 0.74331833324946E-01 0.51773433440058E-02
  37        2S       0.13621887722303E-01 0.42325848012733E-03 0.33192189575842E+00 -.15070312419817E+00 -.98316503106305E-02
  38        3S       0.17567653006952E-01 0.23047840171571E-01 0.35741848866502E+00 -.33608915025337E+00 0.27067710748007E-01
  39        4S       0.13302146203793E-01 0.50481790120218E-02 0.86467812575014E-01 0.47055175807948E-01 -.14095737867015E-01
  40        5S       0.35646900855737E-02 0.13951387871728E-01 0.84837514446793E-01 0.54867888278671E-01 0.11143430143780E-01
  41        6PX      0.18491565163952E-03 0.16271340449379E-04 -.45200383866715E-02 -.88548316838673E-01 0.50678246139138E+00
  42        6PY      0.15088410418257E-03 0.20482051001401E-04 -.43859002558584E-01 -.11999083624025E+00 -.28564596338396E+00
  43        6PZ      0.59197352644428E-03 0.15936267560372E-03 -.16968746101383E+00 -.48766422798597E+00 -.95639822441998E-02
  44        7PX      -.39179122526804E-03 -.78588438725986E-04 -.21898990892881E-01 0.68935814256988E-01 -.16423801729446E+00
  45        7PY      -.95027779183000E-03 -.14633149143006E-02 0.25118330596741E-01 0.78546997243389E-01 0.87624037034559E-01
  46        7PZ      -.40425212864706E-02 -.57199396890281E-02 0.45461556782491E-01 0.34594413677036E+00 -.11702940789732E-01
  47        8PX      0.23382644314082E-02 0.78108475727789E-03 -.55703657846520E-03 -.35031375307293E-01 -.40723603128233E-01
  48        8PY      0.29800817094054E-02 0.12994583198992E-02 0.22624452181312E-01 0.32126599936924E-01 0.25996574286043E-01
  49        8PZ      0.10489275971160E-01 0.44262741484756E-02 0.54674208517134E-01 -.56925155697865E-02 0.10422040312120E-02
  50        9PX      -.79733278543021E-04 -.12867916531928E-03 -.77134703433082E-03 0.68338215120662E-03 -.17544421936888E-01
  51        9PY      0.56547455906187E-04 -.40672489350679E-03 0.97313262904566E-03 -.39905711569603E-03 0.10858789720562E-01
  52        9PZ      0.31384742260342E-03 -.14731033197157E-02 -.77076354105581E-03 0.12704929691642E-02 0.20862438612207E-02
  53       10XX      -.60180233751942E-02 0.24651863984009E-03 -.11745898272052E-01 -.71611553230836E-02 0.59317898801745E-02
  54       10YY      -.60116404666147E-02 0.18839443373554E-03 -.11282897639161E-01 0.63032914347089E-03 -.21859528312257E-02
  55       10ZZ      -.58995073377537E-02 -.82755353020725E-03 0.82286891523537E-02 0.13324570697235E-01 -.36965104551078E-02
  56       10XY      0.43625409912084E-04 -.64668331648131E-05 -.80910670290261E-04 0.70307199567553E-02 0.27962424949190E-03
  57       10XZ      0.57902123256419E-04 -.10607368940617E-03 0.22132883382870E-02 0.76354991478271E-03 0.72660863934852E-02
  58       10YZ      -.15710799657249E-04 -.34607450257989E-03 0.61990819060025E-02 0.20336438808462E-02 -.56519660064539E-02
  59       11XX      0.61664917971924E-02 0.26545627877421E-02 -.13907781170924E-02 0.52922726013171E-01 -.16824164096289E-01
  60       11YY      0.59414872455133E-02 0.21677162790809E-02 0.80464377482024E-03 0.18637539805521E-01 0.23309242005894E-01
  61       11ZZ      0.84037934763286E-02 0.57496429555811E-02 0.12354135041054E-02 -.91828897716534E-01 0.31376369270608E-01
  62       11XY      -.38831525981090E-03 -.59979337348154E-03 0.87452461827758E-04 -.39923863992897E-01 -.12304179939607E-01
  63       11XZ      0.21405398087003E-03 0.45759958223405E-03 -.33138609913165E-03 -.28236894994680E-01 -.68200933890746E-01
  64       11YZ      0.10493872357450E-02 0.14068301896184E-02 0.55691504677521E-03 -.20949146932138E-01 0.50125786089034E-01
  65       12XX      0.13572029669917E-01 0.27345390754788E-02 0.19936263269170E-01 0.26825308972181E-01 -.11245709629037E-01
  66       12YY      0.12399203881767E-01 0.22868752469859E-02 0.89043989987241E-02 0.18618229518440E-01 -.14643709447909E-01
  67       12ZZ      0.11507949880047E-01 0.20268759081812E-02 0.17880238718850E-02 0.30207443928253E-01 -.11779642645321E-01
  68       12XY      -.12901457946076E-02 -.45077618032191E-03 -.98447560007729E-02 -.12476645760763E-03 -.39231011169388E-02
  69       12XZ      -.38235381184352E-03 -.36057294636051E-04 0.12329128979850E-02 0.11424386760525E-01 -.44516112523612E-02
  70       12YZ      0.42578276337582E-04 0.32834708957703E-04 -.14893487417658E-02 -.95966594509827E-02 0.36777246776762E-02
  71 3   H  1S       0.77729284761880E-03 -.28188925470680E-03 0.20232160745113E+00 -.39922439901587E+00 0.51900632129314E+00
  72        2S       -.58847465746948E-02 -.62447819678366E-02 -.94382164582905E-01 0.22645270219215E-01 0.30970795796662E-01
  73        3S       -.30374728908635E-01 -.11595504246290E-01 -.53259163099446E-01 -.10193532397171E+00 0.22815769698538E+00
  74        4S       -.58676261793234E-03 -.94863510870392E-04 -.97395557642325E-03 -.72170508687189E-02 0.33350611752322E-01
  75        5PX      -.30015669519625E-04 -.28434086810377E-04 -.13243833696920E-01 0.14210427924719E-01 -.85346991761122E-02
  76        5PY      -.11902839288201E-06 0.48451506998497E-04 0.38350911508880E-02 -.69883691197393E-02 0.10482954792573E-02
  77        5PZ      -.35735766613671E-04 0.12272441591217E-03 -.91256706810236E-02 0.68475983955411E-03 -.82198857336335E-02
  78        6PX      0.12656496436322E-02 0.17080942788268E-02 -.23651148621965E-03 0.15300226681669E-01 -.38106721884084E-01
  79        6PY      -.40228113444376E-03 -.64824225350752E-03 0.66159687553574E-03 0.41249011364087E-02 0.17116953635722E-01
  80        6PZ      0.72119442909821E-03 0.63651477052099E-03 0.18237265292410E-03 0.29969814724358E-01 -.39825311674869E-02
  81        7PX      0.39030595173145E-02 0.14293424877184E-02 0.15931549942147E-02 0.10698896396309E-01 -.35127048325552E-01
  82        7PY      -.80744773696851E-03 -.28025726298188E-03 -.18267087486118E-02 -.21641052972279E-02 0.10097111694528E-01
  83        7PZ      0.31583024537845E-02 0.12685410495601E-02 -.36505771945700E-02 0.49325027555843E-02 -.20633223112271E-01
  84 4   H  1S       0.71805308441803E-03 -.30850711601599E-04 0.16403088947156E+00 -.41395761872290E+00 -.50563996868393E+00
  85        2S       -.63828497619529E-02 -.63346557094796E-02 -.12120476911850E+00 0.33877136257583E-01 -.83871053607012E-01
  86        3S       -.30700816027105E-01 -.11215852035087E-01 -.73635206575647E-01 -.47579883445380E-01 -.16567010069782E+00
  87        4S       -.58865849770643E-03 0.22635873254814E-03 -.66547555260793E-02 -.92369812567584E-03 -.33257253849797E-01
  88        5PX      0.46320526735746E-04 0.12826086732143E-03 0.70372129334366E-02 -.12658705401121E-01 -.29572159931551E-02
  89        5PY      -.68162896951597E-04 -.68293807101207E-04 -.72967883040277E-02 0.96232766641763E-02 0.62398528815095E-02
  90        5PZ      -.10745544772624E-03 0.55418113821233E-04 -.89098342126693E-02 0.51646713455485E-02 0.10778029028794E-01
  91        6PX      -.10566914284483E-02 -.13241204783668E-02 -.73140296718318E-02 0.22496319122368E-02 -.35784077447513E-01
  92        6PY      0.99066439540778E-03 0.11347135921181E-02 0.89456272272526E-02 0.12309622694671E-01 0.30012655147739E-01
  93        6PZ      0.93594599763673E-03 0.86650663678393E-03 0.13587725184360E-01 0.32594200753798E-01 0.17965263377102E-01
  94        7PX      -.21785177862857E-02 -.75078270434640E-03 -.92476148579983E-03 0.11156443870849E-02 -.12593571633633E-01
  95        7PY      0.28796788597472E-02 0.10273392947371E-02 0.20148559854402E-02 0.15300165101061E-02 0.12996447272121E-01
  96        7PZ      0.39542051638468E-02 0.15589575647591E-02 0.41573201670492E-02 0.92927578610009E-03 0.12397288118523E-01
                           6         7         8         9        10
                           O         O         O         V         V
     Eigenvalues --  -.13115223284273E+00 -.11492088089304E+00 -.20930358844068E-01 0.69841294983911E-01 0.72092806825518E-01
   1 1   C  1S       0.10049128426181E+00 0.72890713589073E-02 -.31186769456973E-02 0.58446437702596E-03 -.18668690912551E-02
   2        2S       -.21267020184323E+00 -.15011192308170E-01 0.74741416708194E-02 0.16405183151859E-02 -.23277451296908E-02
   3        3S       -.17523297148543E+00 -.20280558996366E-01 0.68713092436948E-02 0.16581692364235E+00 -.39396273871338E+00
   4        4S       -.82638083854583E-01 0.40208606567198E-02 0.25910291426913E-01 -.78165155369437E+00 0.48410036858330E+01
   5        5S       -.25046746036440E+00 -.23697773335674E-01 0.59668519593700E-02 -.76974180651464E+00 -.57565086236201E+01
   6        6PX      0.34975418959167E-01 0.25759331673902E+00 0.70239078040049E+00 -.43922191760630E-02 0.11955560116443E-02
   7        6PY      0.12872502038111E+00 0.47147725512359E+00 -.37857219509000E+00 0.23789174581650E-02 -.15066748470787E-02
   8        6PZ      0.66524403233726E+00 -.73414564544501E-01 0.48961728205840E-01 0.28032890990604E-03 -.41531824312860E-02
   9        7PX      -.17267589843354E-02 -.20512044332141E-01 0.34649936063744E-01 0.20113926779656E-01 -.38847880108339E-01
  10        7PY      0.42135401298284E-02 -.38425781475862E-01 -.22410480069812E-01 0.13542040664764E-01 -.39876165328128E-01
  11        7PZ      0.38555581578417E-03 0.45887701816067E-02 -.83280254274546E-02 0.83714715387963E-01 -.20137742287615E+00
  12        8PX      0.43015419214650E-01 0.30408483374067E-01 0.27279727647377E+00 -.21011318749511E+00 0.25684118500912E+00
  13        8PY      -.94049809935729E-02 0.42388280625685E-01 -.14607766559561E+00 0.59014674977772E-01 0.37800580869685E+00
  14        8PZ      0.10585741355000E+00 0.51566177575796E-02 0.16721308856186E-01 -.26190377768093E+00 0.18220103741591E+01
  15        9PX      -.99924847264544E-03 -.40896066413410E-02 0.94352610701803E-01 -.75602011399667E+00 -.14632473293093E+00
  16        9PY      -.55962730272537E-02 -.71762506980320E-02 -.51817927613357E-01 0.43827558408480E+00 -.10327919203412E+00
  17        9PZ      -.21156722449678E-01 0.12602952442888E-02 0.33965637393116E-02 0.48624351791201E-01 -.85350662009583E+00
  18       10XX      -.16766104854525E-01 0.13636578499404E-02 0.11165243877691E-02 0.28337831870213E-03 -.29085998223968E-03
  19       10YY      -.95612338293580E-02 0.10179186610181E-01 -.32868853468053E-02 0.23551435484595E-03 -.17140425684266E-02
  20       10ZZ      0.37007870241822E-01 -.11083558706236E-01 0.19315257134663E-03 0.10217521693437E-03 0.51158503854749E-03
  21       10XY      0.51058019026129E-02 0.70831506485636E-02 0.24591621067150E-02 0.41806630580456E-03 -.18021702823876E-02
  22       10XZ      0.23608702551482E-02 0.14384908959874E-01 0.12015931193598E-01 0.27673318642757E-03 -.11621466893882E-03
  23       10YZ      0.11337824455875E-01 0.26126408064017E-01 -.64657269115231E-02 -.39147213111048E-03 0.12675733039857E-02
  24       11XX      -.58338660983308E-02 0.66193439715003E-03 0.10246324236169E-02 0.14152851515901E-01 -.46549370826842E-01
  25       11YY      0.68047187050850E-02 0.38957208232848E-02 -.41552738653570E-02 0.14515794097988E-01 -.31669260287468E-01
  26       11ZZ      0.37118498471295E-01 -.38379944754246E-02 -.36299609626431E-02 0.46607567000112E-01 -.11293153408630E+00
  27       11XY      0.10547440455348E-01 0.30490513310195E-02 0.35852251941553E-02 -.23607470033922E-02 0.14084060030647E-01
  28       11XZ      0.13355986735104E-03 0.46533607338808E-02 0.14932554580146E-01 0.93103659186239E-02 -.13285546066964E-01
  29       11YZ      0.77211878352882E-02 0.80136974991483E-02 -.98716901341616E-02 0.69990638575014E-02 -.23664501735263E-01
  30       12XX      0.36768924413764E-01 0.33435213109911E-02 0.88425011918095E-02 0.68957393862844E-01 0.63779276857772E-01
  31       12YY      0.37158183287056E-01 0.44600540778205E-02 -.47532675907974E-02 0.66171527008327E-01 0.39846132103947E-01
  32       12ZZ      0.55769112789647E-01 0.40730790942020E-02 0.21925286961351E-02 0.46286098017971E-02 0.46150560489980E+00
  33       12XY      0.60864281523207E-02 0.19108513625771E-02 0.48730944828140E-02 -.14917100657811E-01 -.17235536651622E-01
  34       12XZ      0.10242976620327E-01 0.41031938753058E-02 0.25895921492152E-01 -.41693067811339E-01 0.71903482943806E-01
  35       12YZ      -.41468881677675E-02 0.47187223163419E-02 -.14039226496967E-01 0.97965545528677E-02 0.11315112885203E+00
  36 2   C  1S       -.60110806469845E-01 -.99716586077870E-03 0.34658379315757E-02 -.31841784774270E-03 0.24232073870534E-02
  37        2S       0.12921975684321E+00 0.27611526862258E-02 -.83631182693215E-02 -.32087276701921E-02 0.18581478753020E-01
  38        3S       0.12975909599504E+00 0.13033518303777E-02 0.16843781835300E-02 -.20898620617646E+00 0.10039744911847E+01
  39        4S       -.87459303590437E-02 0.10174892561239E-01 0.28721490511422E-01 -.88644411971663E+00 0.59053609696899E+01
  40        5S       0.26567359151749E+00 0.32422316513556E-01 0.38016020206528E-02 -.80784389266840E+00 0.13994698299783E+02
  41        6PX      -.95776569027055E-01 0.28793059422051E+00 -.67502661745443E-02 0.36930414301226E-04 0.66923399083035E-03
  42        6PY      -.12714070691032E+00 0.52059759764136E+00 -.39815148714197E-02 -.67386530444242E-03 0.19059549453295E-02
  43        6PZ      -.34764986556501E+00 -.21409764101139E+00 -.29230005710799E-01 -.13737375353608E-02 0.67350734525520E-02
  44        7PX      0.38746829242498E-01 -.13127808026155E-01 -.13220286393693E-01 0.18207598524271E+00 0.47726430970604E-01
  45        7PY      0.65762361687666E-01 -.22760622137264E-01 0.91559416720983E-02 -.83984104259683E-01 -.34326479174161E-01
  46        7PZ      0.24717096563698E+00 0.23944150489145E-01 0.30315157118946E-02 0.55497385681463E-01 -.54369533515753E-01
  47        8PX      -.30563534537965E-01 0.42380944053183E-01 -.10959763190900E+00 0.12792555064772E+01 0.66932459639651E+00
  48        8PY      0.30129956164245E-01 0.87625910035665E-01 0.65098121757687E-01 -.95572806072362E+00 0.67055206748720E+00
  49        8PZ      0.25742407049037E-01 -.19622070034992E-01 0.11924632921138E-01 -.62728931755977E+00 0.27847835655454E+01
  50        9PX      -.28954495948518E-02 0.61512464693259E-02 -.45689783215150E-01 0.37475297680250E+01 0.70022996871401E+00
  51        9PY      -.47931348623970E-02 0.10541563793115E-01 0.26562137796024E-01 -.23087868245622E+01 -.56230209538480E+00
  52        9PZ      -.19638770592396E-01 -.66874648054042E-02 0.17949977931563E-02 -.62545796922042E+00 -.46550251799662E+00
  53       10XX      -.66376428280862E-02 -.14399860849464E-02 -.12220674070500E-01 -.33803964570376E-03 0.48682425219408E-03
  54       10YY      -.31246837707471E-02 -.61922460483699E-02 0.97184510239372E-02 0.42315255855498E-03 0.26076890923135E-03
  55       10ZZ      -.10726214083623E-01 0.60832882466351E-02 0.34512427572808E-02 -.39515377339505E-03 0.52423625665994E-03
  56       10XY      0.33320709026117E-02 -.20885543884058E-02 -.65776910978094E-02 -.10638804960008E-03 -.40885719983015E-03
  57       10XZ      -.56247925865281E-03 -.74244772332572E-02 -.40714122269646E-01 -.48834804222598E-03 -.11626295296353E-03
  58       10YZ      -.21270149874879E-02 -.12781706952137E-01 0.24426500055233E-01 0.16365055027000E-03 -.20277368584333E-03
  59       11XX      0.39685803247884E-01 0.38962279286496E-02 0.28803176791653E-02 0.20434724632396E-02 0.19000295708093E+00
  60       11YY      0.87172879606920E-02 0.21890036274225E-02 0.95357487816757E-03 -.47939326442134E-01 0.15250630465301E+00
  61       11ZZ      -.61385824457676E-01 -.34761993121623E-02 -.42887004667234E-03 -.61291040899643E-01 0.22199926676452E+00
  62       11XY      -.33986797702924E-01 -.11965184803451E-02 -.15595028220940E-02 0.13271348325177E-01 -.33576187987651E-01
  63       11XZ      -.14933210501533E-01 -.27396879830892E-03 0.37461152873876E-03 0.64306650924972E-01 0.14618626724491E-01
  64       11YZ      -.12272722440431E-01 -.12653730471355E-02 -.62615068191299E-03 -.52088511540804E-01 0.34227042790362E-01
  65       12XX      -.28350342930598E-01 0.11643461559844E-01 0.11095438158890E-01 -.38639139642979E+00 0.23730500971790E+01
  66       12YY      -.47932819664140E-01 0.79278544537262E-02 0.20657414649679E-01 -.40064198243874E+00 0.21167943072986E+01
  67       12ZZ      -.49615997571766E-01 0.89508447537705E-02 0.16639577974065E-01 -.35685200004991E+00 0.20660042114912E+01
  68       12XY      -.12267452089900E-01 -.11781196076483E-02 -.24407142827820E-02 0.67140790113521E-01 -.24614036141234E+00
  69       12XZ      0.95854701417049E-02 0.12199723413494E-02 -.98713103134975E-02 0.10883168208677E+00 0.29447107059658E-02
  70       12YZ      -.91268531990616E-02 -.19573805861940E-02 0.63852744664882E-02 -.58588789336969E-01 0.15561096189779E-01
  71 3   H  1S       -.13274861527897E+00 -.49035491147653E-02 -.33543924923713E+00 0.15000207267354E-02 0.36350343592856E-02
  72        2S       -.12285800787368E+00 -.75013171805583E-02 -.57549051718859E-01 -.38737694594204E+00 -.46820244371838E+00
  73        3S       -.67056655028777E-01 -.42052440760346E-01 -.24605873583822E+00 -.24612308885423E+01 -.10696330968517E+02
  74        4S       -.45930108603058E-02 -.13828852611802E-02 -.91630106983700E-01 -.10669278223049E+02 -.46189160974991E+01
  75        5PX      -.12651892646028E-02 0.60911819772999E-02 -.11220411745386E-02 0.10353715490186E-02 0.86807774486713E-04
  76        5PY      -.23975255910645E-02 0.11887761202459E-01 -.63268849585595E-03 -.42506353602708E-03 0.25342426560712E-03
  77        5PZ      -.49871007057320E-02 -.48288798702913E-02 -.40975625057654E-02 0.22471440366929E-03 0.82995425995708E-03
  78        6PX      0.23688116386996E-01 0.81074916502814E-02 -.42415049535763E-02 0.86548458229056E-01 0.10497486986434E+00
  79        6PY      -.38742185988013E-02 0.12522072062698E-01 -.48368641594165E-02 -.29896317333908E-01 -.36802512163004E-01
  80        6PZ      0.23278346686708E-01 -.40894927159717E-02 -.22953884640895E-01 0.49581596693582E-01 0.55085050349835E-01
  81        7PX      -.22968134043389E-02 0.39819070291957E-03 0.71025543244289E-02 0.17454537202422E+00 0.15136871572586E+01
  82        7PY      0.19250502464097E-02 -.93807097842337E-02 -.20298116666821E-02 0.39727902545916E-01 -.32038784576443E+00
  83        7PZ      -.20973983467378E-02 0.64274718527480E-02 0.58751268666606E-02 0.28354693857380E+00 0.11518873688682E+01
  84 4   H  1S       -.15385281426948E+00 -.65007473949751E-02 0.33304774889780E+00 -.45697102951258E-02 0.39484679883171E-02
  85        2S       -.13171489306518E+00 -.71524993991412E-02 0.61900598149357E-01 0.44043341246550E+00 -.33259540417706E+00
  86        3S       -.26098484264166E-01 -.37379578352281E-01 0.13968227397717E+00 0.55820639906686E+01 -.92966499617944E+01
  87        4S       0.67310271898778E-04 -.90621502865185E-03 0.86915223464476E-01 0.11584674000967E+02 0.20187290397356E+00
  88        5PX      -.25679263051877E-02 0.64602995521569E-02 -.24994399411080E-02 0.75300916195849E-03 0.27928872096628E-03
  89        5PY      -.98915179426186E-03 0.10850195885226E-01 0.27365697595286E-02 -.75525540268866E-03 0.18143890994457E-05
  90        5PZ      -.32633619415663E-02 -.45402136490915E-02 0.34840715505906E-02 -.78889017692334E-03 0.39400678495123E-03
  91        6PX      -.13361380763868E-01 0.60044932177074E-02 -.14710568795819E-02 0.65418781163266E-01 -.56515005010560E-01
  92        6PY      0.20308036013092E-01 0.12633679237028E-01 0.76546047780746E-02 -.64270185659451E-01 0.50021229561100E-01
  93        6PZ      0.34606594935205E-01 -.24732100249514E-02 0.20704597610905E-01 -.73890856224464E-01 0.44900418726174E-01
  94        7PX      0.11522098550955E-01 -.56919440629301E-02 -.73026479740167E-02 0.24380588829843E+00 -.81636687566795E+00
  95        7PY      -.67843785872462E-02 -.37444458250456E-02 0.10274600915240E-01 -.46889678614745E+00 0.99818601713256E+00
  96        7PZ      -.26401031440274E-02 0.82319871840600E-02 0.14646222835707E-01 -.74006387522866E+00 0.12689403193242E+01
                          11        12        13        14        15
                           V         V         V         V         V
     Eigenvalues --  0.86664557457338E-01 0.10360061363720E+00 0.10733079287040E+00 0.11080239454826E+00 0.12127619892501E+00
   1 1   C  1S       -.88537350628242E-02 0.80677880735498E-04 -.11587786011147E-02 -.50813682887445E-03 0.75902085313073E-03
   2        2S       -.26427397966116E-01 0.60561960868213E-03 -.73668272664900E-02 -.61533956419635E-04 0.12933203373066E-02
   3        3S       -.63754925299098E+00 -.19154336308041E+00 0.14291256700488E+00 0.72831449435005E-01 -.41344019519814E-01
   4        4S       0.15891298503724E+00 0.64267480123803E-01 -.87472373497104E+00 -.51916712092329E+00 0.14982518438456E+01
   5        5S       0.28519414195176E+02 -.20572784150837E+00 -.65869600686375E+01 0.88184448393945E+00 -.79005738350086E+00
   6        6PX      -.64442412614630E-02 -.91487721297575E-02 0.52107918962208E-02 0.49181255686738E-01 -.77263839396189E-02
   7        6PY      0.11077214115907E-02 -.15110511784818E-01 0.40325971312152E-03 -.27726578170523E-01 -.13979495166612E-01
   8        6PZ      -.84377928942517E-02 0.55160295940856E-02 0.11206524561254E-01 -.53881873647382E-03 0.85007524707596E-02
   9        7PX      -.15985420541715E-01 -.27559674529503E-01 0.37493317012473E-01 0.11268888697947E+00 -.12798892975446E-01
  10        7PY      -.49750249101610E-01 -.55164967454974E-01 0.37537296793977E-01 -.53309424409128E-01 -.23543595013793E-01
  11        7PZ      -.18523888647950E+00 -.89270286877349E-01 0.15293382722526E+00 0.30966254458684E-01 -.29193870434720E-01
  12        8PX      0.34671873217686E-01 0.25466334871328E+00 -.17325062837655E+00 0.13927734803844E+01 0.59998048524247E+00
  13        8PY      0.11067010680282E+00 0.43773838777610E+00 0.21705720612678E+00 -.87092613874382E+00 0.93801954745716E+00
  14        8PZ      0.42917755923666E+00 -.16219334733435E+00 -.38799080888766E+00 -.15180445686553E+00 0.25787945892540E+00
  15        9PX      0.40978978032538E+00 -.13156338327144E+01 -.17493295358387E+01 -.47563179211950E+01 0.16885998541253E+01
  16        9PY      0.81751167940704E+00 -.22965587967690E+01 -.84705946283704E+00 0.29895448625773E+01 0.30979646050032E+01
  17        9PZ      0.34633824398036E+01 0.70523827599706E+00 -.51230926911765E+01 0.93482679514405E+00 -.10591018061032E+01
  18       10XX      -.25095462322045E-02 0.91132423331010E-04 -.25059672398577E-02 -.40496323983683E-03 0.79346758458207E-03
  19       10YY      -.26053377444980E-02 -.21897899049845E-03 -.30783432313570E-03 0.14999581174732E-03 0.12989412831630E-02
  20       10ZZ      -.39929515156950E-02 0.14455227484834E-03 0.29155426261079E-02 -.13807995400434E-03 -.16423018319737E-02
  21       10XY      0.47271696065447E-04 0.18477886731267E-03 0.18512687239542E-02 -.55198535234941E-03 0.87810713079076E-03
  22       10XZ      -.49164702252838E-04 -.35834341747870E-03 -.12454684922324E-03 -.16503655977699E-02 0.23228288106909E-02
  23       10YZ      -.49520865105828E-03 -.43512503470836E-03 0.64601782934916E-03 0.11298158948420E-02 0.46157591381982E-02
  24       11XX      -.14287987037678E+00 -.86636480489439E-02 -.24859640338668E-01 0.21774299234624E-01 -.23959129992260E-02
  25       11YY      -.15262000912939E+00 -.11750999885379E-01 -.33093124101164E-01 -.11304550676386E-01 -.17508554841386E-01
  26       11ZZ      -.21677046161828E+00 -.32228595346222E-01 0.35848208809933E-01 0.33030864062580E-02 0.26006027890763E-01
  27       11XY      -.79559950810639E-02 -.41857678162468E-02 -.39287520194564E-02 0.10939073852607E-01 -.14369923058002E-01
  28       11XZ      -.70944366416159E-02 -.76120655483486E-02 0.20167290101323E-01 0.71355210840736E-01 -.34806975346537E-01
  29       11YZ      -.20245969379890E-01 -.16609981344123E-01 0.21671336120963E-01 -.40908422583710E-01 -.66353449421400E-01
  30       12XX      -.99665793613803E+00 0.46477119423533E-02 -.27090679293919E+00 -.49504497920009E-01 0.11784640317600E+00
  31       12YY      -.10060131117174E+01 -.26880978590372E-01 -.94214394712722E-01 -.83965280484076E-01 0.24445208270783E+00
  32       12ZZ      -.93325386680294E+00 -.42349811959609E-01 -.44627795908015E+00 -.32021881746331E-01 -.59786430569990E-01
  33       12XY      -.12268901056679E-01 0.20669276609890E-01 0.10677721361792E+00 -.14414799484378E-01 0.85654811272412E-01
  34       12XZ      0.84079961998266E-02 0.15286711243912E-01 -.13127090988349E+00 0.87270711402062E-01 0.24744148036571E+00
  35       12YZ      0.25355709740311E-01 0.38165037556061E-01 -.30228159101765E-01 -.37377893773320E-01 0.41021982562255E+00
  36 2   C  1S       0.30576655641481E-02 0.29215342809713E-03 0.22020798649353E-02 -.15950259648523E-02 0.18790624567348E-02
  37        2S       0.42005503099802E-02 0.13369544109070E-02 0.62662169456672E-02 -.65601663788084E-02 0.59940555066526E-02
  38        3S       0.23442045828235E+00 0.26726574004945E+00 0.21627387784668E+00 -.23316392024283E+00 0.16820948584527E+00
  39        4S       -.13526341040164E+01 0.92682217007906E-01 -.25570499395517E+00 -.70062579238510E+00 0.17238336536909E+01
  40        5S       -.26638336621962E+02 0.45098166920028E+00 0.11085569650462E+02 -.23552321989811E+01 0.20817991799456E+01
  41        6PX      0.81037520651298E-03 -.65209445993339E-02 -.25386874157624E-02 -.44236137123956E-02 -.12731883728803E-01
  42        6PY      0.17659621153265E-02 -.11463867694649E-01 -.29365082262394E-02 0.36762069395825E-02 -.23146102796023E-01
  43        6PZ      0.61262666183627E-02 0.31405670549374E-02 -.12398975699862E-01 0.26146191613057E-02 0.31127667392853E-02
  44        7PX      -.36804301609965E-01 -.17038572483497E-01 0.63496381875118E-01 -.56791892915333E-01 0.27704462219693E-01
  45        7PY      -.78748584686590E-01 -.42217651809193E-01 0.82517583754322E-01 0.20697475260046E-01 0.54838792188665E-01
  46        7PZ      -.29814242124618E+00 -.61575980437460E-01 0.32659887429439E+00 -.20063869178141E-01 -.46153422239894E-01
  47        8PX      0.31118580784635E-01 0.21683269514762E+00 0.38271649827107E+00 -.95643097529036E+00 -.47019881626639E+00
  48        8PY      0.13330871761484E-01 0.39586174609727E+00 -.10324358800186E+00 0.40523606693368E+00 -.70311544198817E+00
  49        8PZ      0.19029432066043E+00 -.81021800628475E-02 0.10555004759604E+01 -.48506914125117E+00 0.11140996828479E+01
  50        9PX      0.41523249388579E+00 0.20536022662378E+01 0.19390500784498E+01 0.58903696737882E+01 -.12970760461128E+01
  51        9PY      0.10463726351612E+01 0.35852005368779E+01 0.51625044708412E+00 -.36728390156025E+01 -.24288160967701E+01
  52        9PZ      0.41357440436905E+01 -.11175651733700E+01 0.43714463470344E+01 -.10346251644587E+01 0.70637338464817E+00
  53       10XX      0.69389237233835E-03 0.39116876688085E-03 0.91655413638761E-03 -.11627411307642E-02 0.11101225647664E-02
  54       10YY      0.66336419256671E-03 0.15551564783212E-02 0.65889041819606E-03 0.32552564569831E-03 0.12897034531411E-02
  55       10ZZ      0.76554901130378E-03 -.21258537276759E-02 -.27344816531871E-02 -.26941141459077E-03 -.11854083120397E-02
  56       10XY      -.65716747667943E-04 0.10801206999673E-02 -.22067222976319E-03 -.15368973979905E-02 0.94429045196189E-03
  57       10XZ      0.10049674396626E-03 0.16563427903997E-02 -.75163168563817E-03 -.47457848104491E-02 0.15860721334993E-02
  58       10YZ      0.87583912193123E-04 0.29129167036709E-02 -.10867725177916E-02 0.29873145326531E-02 0.34339763616442E-02
  59       11XX      0.92219904459239E-02 0.19161446919562E-01 0.88451601774574E-01 -.45211226609945E-01 0.35425314797272E-01
  60       11YY      0.33133230661763E-01 0.92884506445526E-02 0.60719023469325E-01 -.65691900476842E-01 0.24423322024703E-01
  61       11ZZ      0.86257042656531E-01 0.87271846712146E-01 0.59417833495043E-01 -.66307615536132E-01 0.74423228172292E-01
  62       11XY      0.30573651814524E-01 -.11468365477444E-01 -.22311144117519E-01 0.37370574511934E-01 -.12112026179014E-01
  63       11XZ      0.14382682300046E-01 -.60546271425539E-02 0.15279981129350E-01 0.93527578363727E-01 -.21374358866144E-01
  64       11YZ      0.47905045891692E-04 -.10468635082358E-01 0.98437617219119E-02 -.65708275213561E-01 -.41019390220468E-01
  65       12XX      0.41503841601751E+00 0.61181428585722E-01 -.38850013769394E+00 -.62106328141001E-01 0.86663413289931E+00
  66       12YY      0.48136641505287E+00 0.19496416424034E+00 -.42379119635227E+00 -.37808982250285E+00 0.82997703267187E+00
  67       12ZZ      0.35108070553270E+00 -.14838493669735E+00 0.10760117192555E+00 -.26913311740280E+00 0.46809806613206E+00
  68       12XY      0.68968274883155E-01 0.79788788604287E-01 -.41825878196509E-02 0.20336220345740E+00 0.72277975625928E-01
  69       12XZ      -.24344714368782E-01 0.16257639987101E+00 0.17863189066574E+00 0.78024392521983E+00 0.16377032553390E+00
  70       12YZ      -.54790185396854E-01 0.26631569368033E+00 0.23231280116544E+00 -.50194150198191E+00 0.30023958280543E+00
  71 3   H  1S       0.16729161367005E-02 0.74838121037303E-03 -.54619614186905E-02 -.27877247519769E-01 -.13779890697529E-02
  72        2S       0.23523181173973E+00 -.76033923049073E-01 -.48429297935048E+00 0.25359101808401E-03 -.88385335766885E-02
  73        3S       0.10261092301769E+01 -.18737698142515E+00 0.28452381653925E+00 0.11865815048125E+01 -.28197303312206E+01
  74        4S       -.42700185829528E+00 -.52368428287509E-01 -.15998035036541E+01 -.26429818194819E+01 -.20856788176235E+00
  75        5PX      -.12837339936131E-02 0.21269516536162E-03 -.34984002321653E-03 -.14016904101535E-03 0.29817406139308E-03
  76        5PY      0.48991984468859E-03 0.10364034441707E-02 0.61514318628058E-03 0.52038625027274E-03 0.48847930926233E-03
  77        5PZ      -.75458656743839E-03 -.22575927290680E-03 0.15861425019883E-02 0.73716111894432E-03 0.15099204273021E-03
  78        6PX      -.49025879020288E-01 0.27264308277913E-01 0.14182173150189E+00 0.72823228964720E-03 -.35762266106737E-02
  79        6PY      0.17271721522228E-01 -.84014106510568E-02 -.70597919382307E-01 -.23320148721048E-01 -.10245566171334E-01
  80        6PZ      -.19361107199672E-01 0.43596595838458E-02 0.12066813038303E-01 -.73201382667440E-01 0.94003815381756E-03
  81        7PX      -.88884508324288E-01 -.45147494303571E+00 -.30526368829657E+00 -.79250356095161E+00 0.32221584321123E+00
  82        7PY      0.24462803830613E-01 -.79008817559164E+00 -.33604383284015E+00 0.19389755086941E+00 -.29946835686681E+00
  83        7PZ      -.48257146536029E-01 0.22167643101371E+00 -.16087210915201E+01 -.90039820362876E+00 0.43399288821945E+00
  84 4   H  1S       -.22758827891580E-02 0.54320283920712E-03 0.86055159982282E-03 0.31118441091990E-01 -.14394426592148E-02
  85        2S       0.28752479528176E+00 -.71499981437685E-01 -.42345059161934E+00 0.34890122001259E+00 -.13235285970824E-01
  86        3S       0.98800485456152E+00 -.21338458050997E+00 0.26578912948979E+00 0.13588531341503E+01 -.29717614292015E+01
  87        4S       -.12241998056625E+01 -.27715918678240E-01 -.55711213993970E+00 0.32345335117982E+01 -.17505597698213E+00
  88        5PX      0.94626125930202E-03 0.10099932584433E-02 0.11822954265369E-02 -.75825885448014E-03 0.10107942433611E-03
  89        5PY      -.80861918837221E-03 0.13633741654656E-02 -.26569982165343E-03 -.20108903098032E-03 0.40068985893808E-03
  90        5PZ      -.82820547320794E-03 -.67538859747390E-03 0.17455996605324E-02 -.16391547263089E-02 0.26226955260579E-03
  91        6PX      0.45146028816858E-01 -.21402702212787E-01 -.11626065410949E+00 0.55718495986575E-01 -.40325621360205E-02
  92        6PY      -.42042320233075E-01 0.12437893545958E-01 0.80962302700023E-01 -.37750843831789E-01 -.96505511640819E-03
  93        6PZ      -.39657693559857E-01 0.92329582058403E-02 0.40003097950881E-01 0.82025573559810E-02 0.26081990434240E-02
  94        7PX      0.14232976501511E-02 -.49504177834928E+00 -.33458600212159E+00 -.41545370191967E+00 -.29495614249508E+00
  95        7PY      -.44720418155904E-01 -.86786761802470E+00 -.23510091925857E+00 0.46724276431216E+00 0.32594012188235E+00
  96        7PZ      -.11756402897728E+00 0.26666261558839E+00 -.12871262994382E+01 0.93765722637722E+00 0.50226724737955E+00
                          16        17        18        19        20
                           V         V         V         V         V
     Eigenvalues --  0.12723991076333E+00 0.12888067558163E+00 0.15856694871681E+00 0.17363630332742E+00 0.17871531834955E+00
   1 1   C  1S       -.14644254382149E-02 -.43816093622365E-02 0.42073247483307E-02 -.16785813904017E-02 -.85740414866557E-04
   2        2S       0.42954510141710E-02 0.50572458463005E-02 -.92181212552231E-01 -.16874985051281E-01 -.24665212298961E-03
   3        3S       0.37078664320246E+00 0.44466961220944E+00 -.11257789435283E+01 -.50872673386749E+00 -.18431519137398E-01
   4        4S       -.43066048526035E+01 -.95499317116929E+01 0.14054063092857E+01 -.48905209860813E+01 0.59989359751041E-01
   5        5S       0.21100333699877E+01 0.99255170421166E+01 0.34216972374553E+02 -.58385865388023E+01 -.14946793753987E-01
   6        6PX      -.12158927093893E-01 -.10292053263402E-02 0.15635275759379E-01 0.27992494755205E-02 0.12130891247830E-01
   7        6PY      -.13988361002184E-02 -.16765002302803E-01 0.49413242964645E-02 0.41145786075897E-03 -.34671590542560E-02
   8        6PZ      -.20914467988658E-01 -.42700465565245E-01 0.42371365458109E-01 0.54787443985645E-02 0.15608789741053E-03
   9        7PX      0.28237424722038E-01 0.52076392936101E-01 -.21393119941860E-01 -.10358210989114E+00 0.89023595990747E-02
  10        7PY      0.45670235320410E-01 0.55642776313795E-01 -.71301333735648E-01 -.23146778632553E-01 -.25440933031057E-02
  11        7PZ      0.21084614220772E+00 0.27696819903528E+00 -.25834801148894E+00 -.21442209903938E+00 -.10893800335948E-01
  12        8PX      -.93491839288090E+00 -.37800269188434E+00 0.30543502154465E+00 -.20168982523523E+01 0.12871755273586E+01
  13        8PY      0.14831494765690E+00 -.66165637943022E+00 -.92558561388300E-02 -.62789286642172E+00 0.19000342926784E+00
  14        8PZ      -.16215459476776E+01 -.36561874057381E+01 0.62754661328372E+00 -.49422225373140E+01 -.59761929352067E+00
  15        9PX      -.21397435880152E+00 0.41736891418936E+00 0.39568627432838E+00 0.79432177725288E-01 0.20784378937462E+00
  16        9PY      0.25067488999128E+00 -.26003733856908E-02 0.71114283329977E+00 -.23513321976911E+00 -.41342436922798E+00
  17        9PZ      -.20438296890262E-01 0.15456526799478E+00 0.31104733002544E+01 -.36666001375552E+00 0.51074488328234E-01
  18       10XX      0.55329860304531E-03 0.70721638730195E-03 -.46646694030803E-02 0.91576308615827E-03 -.34630735930550E-02
  19       10YY      0.14302019199717E-02 0.25005398810517E-02 -.48758804894208E-02 0.67083847413281E-03 0.36978696965598E-02
  20       10ZZ      -.15806117786707E-02 -.35042853226209E-02 -.18195684515585E-02 -.53319536413557E-02 -.30186718843183E-03
  21       10XY      0.14196599263197E-02 0.26549259643326E-02 -.97333297111068E-04 -.82632663463510E-03 -.22226132727240E-02
  22       10XZ      -.45428676238219E-03 0.63103258754218E-03 0.74355868101180E-03 -.24224199194695E-02 0.74206018193447E-03
  23       10YZ      -.99494203137123E-03 -.25023263939637E-02 0.80224772212027E-03 -.11616335314508E-02 -.11545475272709E-03
  24       11XX      0.13243955875314E-01 0.21602151146726E-01 -.26761130204775E+00 -.15222568762244E+00 0.18877607011597E-01
  25       11YY      0.15093848009974E-01 -.62601784694882E-02 -.27553380969369E+00 -.11191524190620E+00 -.30282424914891E-01
  26       11ZZ      0.10491636437662E+00 0.12431948672231E+00 -.35728316982105E+00 -.16703765787496E+00 -.44665128048237E-02
  27       11XY      -.14104601262094E-01 -.23543936592138E-01 -.45925732706478E-02 0.24350522543569E-01 0.16444318502696E-01
  28       11XZ      0.29503862982210E-02 0.17232563976191E-01 -.83847560402897E-02 -.40775549173099E-01 -.64637142750659E-03
  29       11YZ      0.28991559955001E-01 0.30777890694161E-01 -.27619126188337E-01 -.13264639645002E-01 -.63949626069681E-02
  30       12XX      -.74846702953047E-01 -.48182724762529E+00 -.18046340370762E+01 -.93793405639557E+00 0.27174333958863E+00
  31       12YY      -.18765035169254E-01 -.39098378123115E+00 -.18616217399786E+01 -.50369016088032E+00 -.18873518387978E+00
  32       12ZZ      -.45144682303587E+00 -.13047570002045E+01 -.19265762833367E+01 -.19728534934208E+01 -.21748301033588E+00
  33       12XY      -.18520570602072E-02 0.75292401696088E-01 -.23432884221295E-01 0.27003226347020E+00 0.24974217810846E+00
  34       12XZ      -.14295693493545E+00 -.12630306578595E+00 0.39046732339551E-01 -.50446879136120E+00 0.16963610038654E+00
  35       12YZ      -.29252050775724E-01 -.19309058005288E+00 -.53403954926984E-01 -.36363311891637E+00 0.60872195027111E-01
  36 2   C  1S       -.62277268425348E-02 -.12493233643201E-01 -.48844664082840E-02 -.46469839762296E-02 -.22249523394299E-03
  37        2S       -.36025447012369E-02 -.15132183400513E-01 0.36801656261162E-01 -.10013110005803E-01 -.18168180729205E-03
  38        3S       -.67936282307242E+00 -.14570075977853E+01 0.52358935466944E+00 0.94045012797988E+00 0.57108827812289E-01
  39        4S       -.50479081773456E+01 -.11356432503909E+02 -.36707545260334E+00 -.52435957711405E+01 0.26612868064993E-01
  40        5S       -.67835811921482E+01 -.19701887435297E+02 -.30283807207872E+02 0.72049080418743E+01 0.50348591440538E-01
  41        6PX      -.35100624641405E-01 0.23390397720607E-01 -.15678960527186E-02 0.31340281589003E-03 -.85066310471411E-02
  42        6PY      0.25559332000151E-01 -.14615555179871E-02 0.35152396621464E-02 -.29218103195988E-02 0.33483297201656E-02
  43        6PZ      0.24722130258077E-01 0.48075828463777E-01 0.66069502863492E-02 0.26864461908519E-02 0.31183627237958E-03
  44        7PX      0.35462941710434E+00 -.17337780454820E+00 -.53140575342064E-01 0.76740005836554E-01 -.31135993396963E-02
  45        7PY      -.15667291190991E+00 0.11803947881308E+00 -.10346974246185E+00 0.44200726998743E-01 0.11911448761934E-01
  46        7PZ      0.11819557514230E+00 0.77036358193400E-01 -.39960317994564E+00 0.12081101309086E+00 0.75119001858869E-02
  47        8PX      0.25048320004315E+01 -.19670322452566E+01 -.19228912471761E-01 0.10102657595461E+01 -.62858170389869E+00
  48        8PY      -.24243645960336E+01 -.87979773760589E+00 0.47090480961126E+00 -.59915544813292E+00 -.51625619199548E+00
  49        8PZ      -.25260874329571E+01 -.47997474971416E+01 0.14246646897115E+01 -.30035837710509E+00 0.32353738648601E+00
  50        9PX      0.39745681514254E+01 -.21634333149051E+01 0.29527971688179E+00 -.16064355584503E+00 -.58789155957710E+00
  51        9PY      -.23471379385581E+01 0.16850074014658E+01 0.10583150220319E+01 0.50349378664551E-01 0.70173516960476E+00
  52        9PZ      -.28643011672147E-01 0.18941024114910E+01 0.38789460365807E+01 -.48655557836936E+00 -.27712722599822E-01
  53       10XX      -.94671232523910E-03 -.19068926611409E-03 0.15801597230593E-02 -.51356427172561E-03 -.65460900664994E-02
  54       10YY      0.65006305853306E-03 -.91976004627540E-03 0.17935530261155E-02 -.13804473994825E-02 0.66708012080026E-02
  55       10ZZ      -.83604654336539E-03 -.17042154663202E-02 -.24929976633181E-02 0.16117996287782E-02 -.32183343906399E-03
  56       10XY      0.17354296258789E-03 0.19203702518351E-03 -.43102240384453E-03 0.19730129129384E-02 -.39562683372985E-02
  57       10XZ      -.81882110238516E-03 0.90208258360549E-03 -.14097679026848E-02 0.42253377662766E-02 0.71796089789595E-03
  58       10YZ      0.79438943946020E-03 0.61727488472484E-03 -.64726321999521E-03 -.42037513363651E-03 0.48410019222565E-03
  59       11XX      -.64595785613637E-01 -.32587906711819E+00 0.66086019338461E-01 0.14694211174979E+00 0.48755641680161E-01
[...]
  68         V       0.10650142123825E+01 0.14328245882638E+01
  69         V       0.11266072550371E+01 0.19139812597355E+01
  70         V       0.11280475158701E+01 0.18269468251191E+01
  71         V       0.11874530098922E+01 0.19797365010995E+01
  72         V       0.13142432482590E+01 0.21249412215144E+01
  73         V       0.14402726444439E+01 0.23893319366931E+01
  74         V       0.15754900886418E+01 0.21986824929087E+01
  75         V       0.16608935123699E+01 0.21868020324686E+01
  76         V       0.16834552643326E+01 0.22135197486752E+01
  77         V       0.17058803819476E+01 0.21249241736189E+01
  78         V       0.17947551903560E+01 0.22628884151596E+01
  79         V       0.18240847651104E+01 0.23766441466187E+01
  80         V       0.18504746922663E+01 0.22685248818258E+01
  81         V       0.19550083843975E+01 0.24011668053683E+01
  82         V       0.19690360023983E+01 0.24581701624267E+01
  83         V       0.19773019917192E+01 0.24464186209713E+01
  84         V       0.20243650795444E+01 0.25934403539997E+01
  85         V       0.22231980705229E+01 0.27888131224635E+01
  86         V       0.22400742383184E+01 0.28202374992475E+01
  87         V       0.23150289118136E+01 0.29384719279244E+01
  88         V       0.23372790608207E+01 0.29921336601483E+01
  89         V       0.23704349359594E+01 0.36295257371015E+01
  90         V       0.25670859679929E+01 0.39337214496920E+01
  91         V       0.27008292410013E+01 0.37682956698938E+01
  92         V       0.28062763665950E+01 0.37732943063268E+01
  93         V       0.29106487045886E+01 0.39647478488868E+01
  94         V       0.53820361912527E+01 0.13197621737964E+02
  95         V       0.58297490308208E+01 0.14539913562059E+02
 Orbital energies and kinetic energies (beta):
                                 1                 2
   1         O       -.10093036135355E+02 0.15930846980737E+02
   2         O       -.10054639267969E+02 0.15958039716765E+02
   3         O       -.57781447699129E+00 0.15238233258990E+01
   4         O       -.34643693245832E+00 0.12312274221266E+01
   5         O       -.24750752032047E+00 0.83688913865210E+00
   6         O       -.10998408956251E+00 0.96162399133931E+00
   7         O       -.10416011783847E+00 0.11867422913585E+01
   8         V       0.78300571066527E-01 0.17058856830406E-01
   9         V       0.79805931916007E-01 0.15831868316242E-01
  10         V       0.96060451425551E-01 0.22540768166246E-01
  11         V       0.10975297016032E+00 0.30262962456340E-01
  12         V       0.11595708223988E+00 0.35567129486723E-01
  13         V       0.12803032140225E+00 0.36844870853996E-01
  14         V       0.12827473110381E+00 0.35698816804546E-01
  15         V       0.14133969519279E+00 0.53382120320128E-01
  16         V       0.14392522015042E+00 0.47941783359815E-01
  17         V       0.16776935463213E+00 0.73256229958248E-01
  18         V       0.19012341805702E+00 0.79030715525515E-01
  19         V       0.19360053993687E+00 0.77856509054309E-01
  20         V       0.20636074696334E+00 0.11848963904073E+00
  21         V       0.20961072756510E+00 0.13383468098537E+00
  22         V       0.21082062654230E+00 0.14691109544251E+00
  23         V       0.21576813816063E+00 0.17375326402096E+00
  24         V       0.22296097959840E+00 0.12024609679683E+00
  25         V       0.24031416274958E+00 0.16127428108946E+00
  26         V       0.25074015711666E+00 0.53785055714303E+00
  27         V       0.27259531008083E+00 0.34643580508599E+00
  28         V       0.27628155369838E+00 0.27362058101048E+00
  29         V       0.29289734557714E+00 0.19594233170001E+00
  30         V       0.30515344490300E+00 0.18514571976963E+00
  31         V       0.31056934957531E+00 0.16795446771235E+00
  32         V       0.31496624293124E+00 0.29287682090383E+00
  33         V       0.32336192275445E+00 0.22246267447113E+00
  34         V       0.32971356548091E+00 0.32980899035478E+00
  35         V       0.33720128898847E+00 0.28602643818032E+00
  36         V       0.34434763163135E+00 0.32262442035604E+00
  37         V       0.34634315619897E+00 0.26864262204188E+00
  38         V       0.35266214759345E+00 0.37972204510424E+00
  39         V       0.36260004447246E+00 0.25249051878514E+00
  40         V       0.36506159038385E+00 0.33554440196000E+00
  41         V       0.38423711965785E+00 0.33002766129868E+00
  42         V       0.38765391696511E+00 0.46325113113344E+00
  43         V       0.40232625944201E+00 0.82917671912485E+00
  44         V       0.41791655383972E+00 0.53164020907889E+00
  45         V       0.47294068237289E+00 0.69731642612493E+00
  46         V       0.50402071917017E+00 0.71715248457528E+00
  47         V       0.51262753254643E+00 0.48184752600052E+00
  48         V       0.55509453616047E+00 0.98374906651200E+00
  49         V       0.60538041206566E+00 0.74629152554694E+00
  50         V       0.61702488250144E+00 0.57512023986132E+00
  51         V       0.62775906042559E+00 0.66302416183941E+00
  52         V       0.67035111169543E+00 0.62379499945290E+00
  53         V       0.68575076642934E+00 0.67849175622539E+00
  54         V       0.70301527626266E+00 0.78791274922898E+00
  55         V       0.72173745786419E+00 0.63645219789617E+00
  56         V       0.75553371172161E+00 0.84140367307672E+00
  57         V       0.78510093829420E+00 0.76274380702785E+00
  58         V       0.80586454401388E+00 0.87876597041101E+00
  59         V       0.81247356941420E+00 0.88289782376361E+00
  60         V       0.84053950894547E+00 0.11158950162553E+01
  61         V       0.88067272075149E+00 0.12766932059077E+01
  62         V       0.88237076040913E+00 0.89686408531116E+00
  63         V       0.89107383430947E+00 0.10757517133141E+01
  64         V       0.91181746470349E+00 0.11978511473162E+01
  65         V       0.91914059828637E+00 0.14711639998081E+01
  66         V       0.95898251385596E+00 0.18807939977951E+01
  67         V       0.10163248042088E+01 0.19904305297754E+01
  68         V       0.10671149139678E+01 0.14262040780614E+01
  69         V       0.11339701141211E+01 0.19158241873654E+01
  70         V       0.11549077731785E+01 0.20060380446653E+01
  71         V       0.11909257417912E+01 0.19931570597016E+01
  72         V       0.13169911923909E+01 0.21354938365044E+01
  73         V       0.14459361754529E+01 0.24029402197929E+01
  74         V       0.15812899640302E+01 0.22055663064591E+01
  75         V       0.16663788219124E+01 0.21921188229580E+01
  76         V       0.16904244481602E+01 0.22217491342739E+01
  77         V       0.17142171676441E+01 0.21366759648707E+01
  78         V       0.18187273193526E+01 0.22948049646410E+01
  79         V       0.18571414601590E+01 0.23769504862986E+01
  80         V       0.18921000098334E+01 0.22665966548268E+01
  81         V       0.19697658894052E+01 0.23928535573029E+01
  82         V       0.19819412382879E+01 0.24277948106349E+01
  83         V       0.19901298332268E+01 0.24781033886526E+01
  84         V       0.20328666873965E+01 0.25872643240063E+01
  85         V       0.22345636206096E+01 0.27275960340224E+01
  86         V       0.22521775000199E+01 0.28646835234966E+01
  87         V       0.23248256253561E+01 0.29216346030343E+01
  88         V       0.23501378354923E+01 0.30083635207013E+01
  89         V       0.23780943302220E+01 0.36451980415028E+01
  90         V       0.25780508341122E+01 0.39262722226763E+01
  91         V       0.27161045466256E+01 0.37646483104771E+01
  92         V       0.28157660527595E+01 0.37786606264252E+01
  93         V       0.29217844328036E+01 0.39629157650658E+01
  94         V       0.54034848189089E+01 0.13204863457250E+02
  95         V       0.58289326814189E+01 0.14538090662502E+02
 Total kinetic energy from orbitals= 7.632709678530D+01
                          Isotropic Fermi Contact Couplings
        Atom                 a.u.       MegaHertz       Gauss      10(-4) cm-1
     1  C(13)              0.04934      55.47211      19.79383      18.50351
     2  C(13)             -0.04945     -55.59298     -19.83696     -18.54382
     3  H(1)               0.03197     142.91883      50.99699      47.67259
     4  H(1)               0.03423     153.01731      54.60038      51.04108
 --------------------------------------------------------
       Center         ----  Spin Dipole Couplings  ----
                      3XX-RR        3YY-RR        3ZZ-RR
 --------------------------------------------------------
     1   Atom        0.582080     -0.111939     -0.470141
     2   Atom       -0.020044     -0.058435      0.078479
     3   Atom       -0.007541     -0.005877      0.013418
     4   Atom       -0.004411     -0.004303      0.008714
 --------------------------------------------------------
                        XY            XZ            YZ
 --------------------------------------------------------
     1   Atom       -0.526786      0.064714     -0.059335
     2   Atom       -0.031117      0.023122      0.043689
     3   Atom        0.001217      0.003638      0.004354
     4   Atom        0.001903      0.002958      0.001994
 --------------------------------------------------------


 ---------------------------------------------------------------------------------
              Anisotropic Spin Dipole Couplings in Principal Axis System
 ---------------------------------------------------------------------------------

       Atom             a.u.   MegaHertz   Gauss  10(-4) cm-1        Axes

              Baa    -0.4810   -64.541   -23.030   -21.529  0.0622  0.2444  0.9677
     1 C(13)  Bbb    -0.3903   -52.377   -18.689   -17.471  0.4744  0.8458 -0.2441
              Bcc     0.8713   116.918    41.719    38.999  0.8781 -0.4743  0.0633
 
              Baa    -0.0903   -12.114    -4.323    -4.041  0.4646  0.8397 -0.2811
     2 C(13)  Bbb    -0.0027    -0.361    -0.129    -0.120  0.8763 -0.4816  0.0096
              Bcc     0.0930    12.475     4.451     4.161  0.1273  0.2508  0.9596
 
              Baa    -0.0083    -4.430    -1.581    -1.478  0.9494 -0.2979 -0.0993
     3 H(1)   Bbb    -0.0067    -3.573    -1.275    -1.192  0.2660  0.9311 -0.2497
              Bcc     0.0150     8.004     2.856     2.670  0.1668  0.2106  0.9632
 
              Baa    -0.0063    -3.364    -1.200    -1.122  0.7535 -0.6546 -0.0615
     4 H(1)   Bbb    -0.0034    -1.836    -0.655    -0.612  0.6185  0.7374 -0.2715
              Bcc     0.0097     5.200     1.856     1.735  0.2231  0.1666  0.9605
 

 ---------------------------------------------------------------------------------

 No NMR shielding tensors so no spin-rotation constants.
 Leave Link  601 at Tue Jun 13 17:05:23 2023, MaxMem= 1966080000 cpu:       2.1
 (Enter /local/g09-source/g09/l701.exe)
 Compute integral first derivatives.
 ... and contract with generalized density number  0.
 R6Disp: Adding dispersion energy 1st derivatives to the gradient.
 Leave Link  701 at Tue Jun 13 17:05:23 2023, MaxMem= 1966080000 cpu:       0.9
 (Enter /local/g09-source/g09/l702.exe)
 L702 exits ... SP integral derivatives will be done elsewhere.
 Leave Link  702 at Tue Jun 13 17:05:23 2023, MaxMem= 1966080000 cpu:       0.2
 (Enter /local/g09-source/g09/l703.exe)
 Compute integral first derivatives, UseDBF=F ICtDFT=           0.
 Integral derivatives from FoFDir, PRISM(SPDF).
 Calling FoFJK, ICntrl=      2127 FMM=F ISym2X=0 I1Cent= 0 IOpClX= 1 NMat=1 NMatS=1 NMatT=0.
 FoFJK:  IHMeth= 1 ICntrl=  2127 DoSepK=T KAlg= 1 I1Cent= 0 FoldK=F
 FoFCou: FMM=F IPFlag=           0 FMFlag=      100000 FMFlg1=         800
         NFxFlg=           0 DoJE=F BraDBF=F KetDBF=F FulRan=T
         Omega=  0.000000  0.000000  1.000000  0.000000  0.000000 ICntrl=    2527 IOpCl=  0
         NMat0=    1 NMatS0=    1 NMatT0=    0 NMatD0=    1 NMtDS0=    0 NMtDT0=    0
         I1Cent=           0 NGrid=           0.
 Symmetry not used in FoFCou.
 Leave Link  703 at Tue Jun 13 17:05:25 2023, MaxMem= 1966080000 cpu:      11.0
 (Enter /local/g09-source/g09/l716.exe)
 Dipole        = 8.41939921D-02 8.27382402D-02-3.67661694D-01
 -------------------------------------------------------------------
 Center     Atomic                   Forces (Hartrees/Bohr)
 Number     Number              X              Y              Z
 -------------------------------------------------------------------
      1        6          -0.005639410    0.006583590    0.016626512
      2        6           0.014919456    0.013143911    0.036391997
      3        1          -0.035711883    0.011112905   -0.016022176
      4        1           0.026431837   -0.030840405   -0.036996333
 -------------------------------------------------------------------
 Cartesian Forces:  Max     0.036996333 RMS     0.023708937
 Z-matrix is all fixed cartesians, so copy forces.
 Force constants in Cartesian coordinates: 
                1             2             3             4             5 
      1  0.455661D-01
      2 -0.394342D-02  0.466443D-01
      3  0.589295D-01  0.122261D+00  0.515378D+00
      4 -0.714084D-01  0.113973D-01 -0.577667D-01  0.354803D+00
      5  0.124925D-01 -0.645998D-01 -0.118909D+00 -0.128281D+00  0.197640D+00
      6 -0.526088D-01 -0.118011D+00 -0.517128D+00  0.926947D-01  0.172573D+00
      7  0.100275D-01 -0.132709D-02 -0.828728D-03 -0.181156D+00  0.570027D-01
      8 -0.729406D-02  0.103774D-01 -0.166753D-02  0.532352D-01 -0.506207D-01
      9 -0.217948D-01  0.818891D-02  0.521702D-03 -0.711613D-01  0.537052D-02
     10  0.158148D-01 -0.612681D-02 -0.333996D-03 -0.102239D+00  0.587859D-01
     11 -0.125502D-02  0.757811D-02 -0.168418D-02  0.636486D-01 -0.824192D-01
     12  0.154741D-01 -0.124389D-01  0.122761D-02  0.362334D-01 -0.590344D-01
                6             7             8             9            10 
      6  0.759193D+00
      7 -0.693784D-01  0.175547D+00
      8  0.271879D-02 -0.593886D-01  0.360132D-01
      9 -0.114636D+00  0.775854D-01 -0.939558D-02  0.963998D-01
     10  0.292924D-01 -0.441836D-02  0.134474D-01  0.153707D-01  0.908423D-01
     11 -0.572809D-01  0.371293D-02  0.423017D-02 -0.416384D-02 -0.661065D-01
     12 -0.127429D+00 -0.737832D-02  0.834433D-02  0.177147D-01 -0.443292D-01
               11            12 
     11  0.706109D-01
     12  0.631289D-01  0.108486D+00
 Leave Link  716 at Tue Jun 13 17:05:25 2023, MaxMem= 1966080000 cpu:       0.2
 (Enter /local/g09-source/g09/l103.exe)

 GradGradGradGradGradGradGradGradGradGradGradGradGradGradGradGradGradGrad
 Berny optimization.
 Search for a local minimum.
 Step number   1 out of a maximum of    2
 All quantities printed in internal units (Hartrees-Bohrs-Radians)
 Second derivative matrix not updated -- first step.
 The second derivative matrix:
                          X1        Y1        Z1        X2        Y2
           X1        0.45566058473652E-01
           Y1        -.39434232288660E-02 0.46644347204684E-01
           Z1        0.58929453763182E-01 0.12226090835779E+00 0.51537841416169E+00
           X2        -.71408421157141E-01 0.11397325054211E-01 -.57766729868931E-01 0.35480324252014E+00
           Y2        0.12492503482924E-01 -.64599841366170E-01 -.11890919436449E+00 -.12828111704998E+00 0.19763974346585E+00
           Z2        -.52608784809496E-01 -.11801095754012E+00 -.51712772777968E+00 0.92694699800007E-01 0.17257305587244E+00
           X3        0.10027538370401E-01 -.13270894045310E-02 -.82872802637858E-03 -.18115605802326E+00 0.57002722436774E-01
           Y3        -.72940631465117E-02 0.10377387434025E-01 -.16675306204911E-02 0.53235206412224E-01 -.50620721207270E-01
           Z3        -.21794800391583E-01 0.81889119131049E-02 0.52170179541247E-03 -.71161329003980E-01 0.53705157761125E-02
           X4        0.15814824313087E-01 -.61268124208145E-02 -.33399586787254E-03 -.10223876333974E+00 0.58785891130283E-01
           Y4        -.12550171075465E-02 0.75781067274607E-02 -.16841833728072E-02 0.63648585583545E-01 -.82419180892407E-01
           Z4        0.15474131437897E-01 -.12438862730776E-01 0.12276118225751E-02 0.36233359072905E-01 -.59034377284063E-01
                          Z2        X3        Y3        Z3        X4
           Z2        0.75919255877612E+00
           X3        -.69378356994177E-01 0.17554688098318E+00
           Y3        0.27187865230323E-02 -.59388561855084E-01 0.36013159575018E-01
           Z3        -.11463622748247E+00 0.77585409360571E-01 -.93955844888537E-02 0.96399810685253E-01
           X4        0.29292442003667E-01 -.44183613303172E-02 0.13447418589371E-01 0.15370720034992E-01 0.90842300356967E-01
           Y4        -.57280884855355E-01 0.37129288228404E-02 0.42301741982271E-02 -.41638432003638E-02 -.66106497298839E-01
           Z4        -.12742860351397E+00 -.73783243400156E-02 0.83443285863126E-02 0.17714715001806E-01 -.44329166170787E-01
                          Y4        Z4
           Y4        0.70610899966719E-01
           Z4        0.63128911428526E-01 0.10848627668959E+00
     Eigenvalues ---    0.07898   0.10236   0.11250   0.25367   0.54182
     Eigenvalues ---    1.26832
 Quadratic step=3.260D-01 exceeds max=3.000D-01 adjusted using Lamda=-1.610D-02.
 Angle between NR and scaled steps=   2.13 degrees.
 Angle between quadratic step and forces=  27.59 degrees.
 Linear search not attempted -- first point.
 TrRot= -0.019744  0.018272  0.029112  3.081710 -0.009620 -3.083924
 Variable       Old X    -DE/DX   Delta X   Delta X   Delta X     New X
                                 (Linear)    (Quad)   (Total)
    X1       -0.07179  -0.00564   0.00000  -0.03147  -0.05114  -0.12293
    Y1       -0.16814   0.00658   0.00000   0.02305   0.04153  -0.12662
    Z1       -0.01476   0.01663   0.00000   0.05523   0.08526   0.07050
    X2        0.21046   0.01492   0.00000   0.04443   0.04936   0.25982
    Y2        0.42611   0.01314   0.00000   0.02176   0.03805   0.46416
    Z2        2.44880   0.03639   0.00000   0.01798   0.04478   2.49357
    X3        2.12904  -0.03571   0.00000  -0.13196  -0.11818   2.01086
    Y3       -0.18702   0.01111   0.00000   0.04011   0.05193  -0.13509
    Z3        3.53671  -0.01602   0.00000  -0.00212   0.00757   3.54428
    X4       -1.11877   0.02643   0.00000   0.10021   0.11997  -0.99880
    Y4        1.75871  -0.03084   0.00000  -0.14988  -0.13151   1.62720
    Z4        3.91538  -0.03700   0.00000  -0.17722  -0.13760   3.77777
         Item               Value     Threshold  Converged?
 Maximum Force            0.036996     0.000450     NO 
 RMS     Force            0.023709     0.000300     NO 
 Maximum Displacement     0.137603     0.001800     NO 
 RMS     Displacement     0.084085     0.001200     NO 
 Predicted change in Energy=-1.166386D-02
 GradGradGradGradGradGradGradGradGradGradGradGradGradGradGradGradGradGrad

 Leave Link  103 at Tue Jun 13 17:05:25 2023, MaxMem= 1966080000 cpu:       0.1
 (Enter /local/g09-source/g09/l9999.exe)

 Test job not archived.
 1\1\GINC-WUX01\Force\UwB97XD\Gen\C2H2(1-,2)\ISSLERK\13-Jun-2023\0\\#p 
 wB97XD/GEN 6D Iop(6/7=3) Iop(9/40=14) scf(maxcyc=200,conver=7) nosym G
 uess(Read,TCheck) GFInput Force\\Comment\\-1,2\C,-0.037987328,-0.08897
 7747,-0.007809871\C,0.1113713,0.225486663,1.295847001\H,1.126640846,-0
 .098968534,1.871546287\H,-0.592028997,0.930670094,2.071927354\\Version
 =EM64L-G09RevA.02\HF=-77.2485983\S2=0.762485\S2-1=0.\S2A=0.750116\RMSD
 =8.911e-08\RMSF=2.371e-02\Dipole=0.2157885,0.3055579,1.207789\Quadrupo
 le=1.1328506,0.7529761,-1.8858267,-0.2155795,-0.1591176,-0.5875107\PG=
 C01 [X(C2H2)]\\@


 I WISH TO HAVE NO CONNECTION WITH ANY SHIP THAT DOES NOT SAIL FAST,
 FOR I INTEND TO GO IN HARM'S WAY.
     -- JOHN PAUL JONES, USN 1747-1792
 Job cpu time:  0 days  0 hours  1 minutes 37.5 seconds.
 File lengths (MBytes):  RWF=     15 Int=      0 D2E=      0 Chk=      2 Scr=      1
 Normal termination of Gaussian 09 at Tue Jun 13 17:05:25 2023.
