 Entering Gaussian System, Link 0=g09
 Initial command:
 /local/g09-source/g09/l1.exe /scratch/1532360/TRAJ_1/Gau-17601.inp -scrdir=/scratch/1532360/TRAJ_1/
 Entering Link 1 = /local/g09-source/g09/l1.exe PID=     17603.
  
 Copyright (c) 1988,1990,1992,1993,1995,1998,2003,2009, Gaussian, Inc.
                  All Rights Reserved.
  
 This is part of the Gaussian(R) 09 program.  It is based on
 the Gaussian(R) 03 system (copyright 2003, Gaussian, Inc.),
 the Gaussian(R) 98 system (copyright 1998, Gaussian, Inc.),
 the Gaussian(R) 94 system (copyright 1995, Gaussian, Inc.),
 the Gaussian 92(TM) system (copyright 1992, Gaussian, Inc.),
 the Gaussian 90(TM) system (copyright 1990, Gaussian, Inc.),
 the Gaussian 88(TM) system (copyright 1988, Gaussian, Inc.),
 the Gaussian 86(TM) system (copyright 1986, Carnegie Mellon
 University), and the Gaussian 82(TM) system (copyright 1983,
 Carnegie Mellon University). Gaussian is a federally registered
 trademark of Gaussian, Inc.
  
 This software contains proprietary and confidential information,
 including trade secrets, belonging to Gaussian, Inc.
  
 This software is provided under written license and may be
 used, copied, transmitted, or stored only in accord with that
 written license.
  
 The following legend is applicable only to US Government
 contracts under FAR:
  
                    RESTRICTED RIGHTS LEGEND
  
 Use, reproduction and disclosure by the US Government is
 subject to restrictions as set forth in subparagraphs (a)
 and (c) of the Commercial Computer Software - Restricted
 Rights clause in FAR 52.227-19.
  
 Gaussian, Inc.
 340 Quinnipiac St., Bldg. 40, Wallingford CT 06492
  
  
 ---------------------------------------------------------------
 Warning -- This program may not be used in any manner that
 competes with the business of Gaussian, Inc. or will provide
 assistance to any competitor of Gaussian, Inc.  The licensee
 of this program is prohibited from giving any competitor of
 Gaussian, Inc. access to this program.  By using this program,
 the user acknowledges that Gaussian, Inc. is engaged in the
 business of creating and licensing software in the field of
 computational chemistry and represents and warrants to the
 licensee that it is not a competitor of Gaussian, Inc. and that
 it will not use this program in any manner prohibited above.
 ---------------------------------------------------------------
  

 Cite this work as:
 Gaussian 09, Revision A.02,
 M. J. Frisch, G. W. Trucks, H. B. Schlegel, G. E. Scuseria, 
 M. A. Robb, J. R. Cheeseman, G. Scalmani, V. Barone, B. Mennucci, 
 G. A. Petersson, H. Nakatsuji, M. Caricato, X. Li, H. P. Hratchian, 
 A. F. Izmaylov, J. Bloino, G. Zheng, J. L. Sonnenberg, M. Hada, 
 M. Ehara, K. Toyota, R. Fukuda, J. Hasegawa, M. Ishida, T. Nakajima, 
 Y. Honda, O. Kitao, H. Nakai, T. Vreven, J. A. Montgomery, Jr., 
 J. E. Peralta, F. Ogliaro, M. Bearpark, J. J. Heyd, E. Brothers, 
 K. N. Kudin, V. N. Staroverov, R. Kobayashi, J. Normand, 
 K. Raghavachari, A. Rendell, J. C. Burant, S. S. Iyengar, J. Tomasi, 
 M. Cossi, N. Rega, J. M. Millam, M. Klene, J. E. Knox, J. B. Cross, 
 V. Bakken, C. Adamo, J. Jaramillo, R. Gomperts, R. E. Stratmann, 
 O. Yazyev, A. J. Austin, R. Cammi, C. Pomelli, J. W. Ochterski, 
 R. L. Martin, K. Morokuma, V. G. Zakrzewski, G. A. Voth, 
 P. Salvador, J. J. Dannenberg, S. Dapprich, A. D. Daniels, 
 O. Farkas, J. B. Foresman, J. V. Ortiz, J. Cioslowski, 
 and D. J. Fox, Gaussian, Inc., Wallingford CT, 2009.
 
 ******************************************
 Gaussian 09:  EM64L-G09RevA.02 11-Jun-2009
                13-Jun-2023 
 ******************************************
 %Chk=neu.chk
 %Nproc=6
 Will use up to    6 processors via shared memory.
 %Mem=15000Mb
 ----------------------------------------------------------------------
 #p wB97XD/GEN 6D Iop(6/7=3) Iop(9/40=14) scf(maxcyc=200,conver=7) nosy
 m Guess(Read,TCheck) GFInput
 ----------------------------------------------------------------------
 1/38=1/1;
 2/12=2,15=1,17=6,18=5,40=1/2;
 3/5=7,8=2,11=2,16=1,24=10,25=1,30=1,74=-58/1,2,3;
 4/5=102/1;
 5/5=2,6=7,7=200/2;
 6/7=3,8=2,9=2,10=2,28=1/1;
 99/5=1,9=1/99;
 Leave Link    1 at Tue Jun 13 17:02:49 2023, MaxMem= 1966080000 cpu:       0.4
 (Enter /local/g09-source/g09/l101.exe)
 -------
 Comment
 -------
 Symbolic Z-matrix:
 Charge =  0 Multiplicity = 1
 C                    -0.03812  -0.08972  -0.01123 
 C                     0.11041   0.22652   1.29959 
 H                     1.13871  -0.10273   1.87219 
 H                    -0.59097   0.9309    2.06747 
 
 NAtoms=      4 NQM=      4 NQMF=      0 NMic=      0 NMicF=      0 NTot=      4.
                    Isotopes and Nuclear Properties:
 (Nuclear quadrupole moments (NQMom) in fm**2, nuclear magnetic moments (NMagM)
  in nuclear magnetons)

  Atom         1           2           3           4
 IAtWgt=          12          12           1           1
 AtmWgt=  12.0000000  12.0000000   1.0078250   1.0078250
 NucSpn=           0           0           1           1
 AtZEff=   0.0000000   0.0000000   0.0000000   0.0000000
 NQMom=    0.0000000   0.0000000   0.0000000   0.0000000
 NMagM=    0.0000000   0.0000000   2.7928460   2.7928460
 Leave Link  101 at Tue Jun 13 17:02:49 2023, MaxMem= 1966080000 cpu:       0.8
 (Enter /local/g09-source/g09/l202.exe)
                          Input orientation:                          
 ---------------------------------------------------------------------
 Center     Atomic      Atomic             Coordinates (Angstroms)
 Number     Number       Type             X           Y           Z
 ---------------------------------------------------------------------
      1          6           0       -0.038123   -0.089716   -0.011232
      2          6           0        0.110405    0.226521    1.299589
      3          1           0        1.138708   -0.102726    1.872187
      4          1           0       -0.590971    0.930897    2.067473
 ---------------------------------------------------------------------
                    Distance matrix (angstroms):
                    1          2          3          4
     1  C    0.000000
     2  C    1.356584   0.000000
     3  H    2.220894   1.222162   0.000000
     4  H    2.380820   1.256073   2.024426   0.000000
 Symmetry turned off by external request.
 Stoichiometry    C2H2
 Framework group  C1[X(C2H2)]
 Deg. of freedom     6
 Full point group                 C1      NOp   1
 Rotational constants (GHZ):    246.6683774     34.4758503     30.2684465
 Leave Link  202 at Tue Jun 13 17:02:49 2023, MaxMem= 1966080000 cpu:       0.0
 (Enter /local/g09-source/g09/l301.exe)
 General basis read from cards:  (6D, 7F)
 Centers:   3  4
 S 4 1.0
     Exponent=  1.3010000000D+01 Coefficients=  1.9685000000D-02
     Exponent=  1.9620000000D+00 Coefficients=  1.3797700000D-01
     Exponent=  4.4460000000D-01 Coefficients=  4.7814800000D-01
     Exponent=  1.2200000000D-01 Coefficients=  5.0124000000D-01
 S 1 1.0
     Exponent=  1.2200000000D-01 Coefficients=  1.0000000000D+00
 S 1 1.0
     Exponent=  2.9740000000D-02 Coefficients=  1.0000000000D+00
 S 1 1.0
     Exponent=  7.2500000000D-03 Coefficients=  1.0000000000D+00
 P 1 1.0
     Exponent=  7.2700000000D-01 Coefficients=  1.0000000000D+00
 P 1 1.0
     Exponent=  1.4100000000D-01 Coefficients=  1.0000000000D+00
 P 1 1.0
     Exponent=  2.7300000000D-02 Coefficients=  1.0000000000D+00
 ****
 Centers:   1  2
 S 9 1.0
     Exponent=  6.6650000000D+03 Coefficients=  6.9200000000D-04
     Exponent=  1.0000000000D+03 Coefficients=  5.3290000000D-03
     Exponent=  2.2800000000D+02 Coefficients=  2.7077000000D-02
     Exponent=  6.4710000000D+01 Coefficients=  1.0171800000D-01
     Exponent=  2.1060000000D+01 Coefficients=  2.7474000000D-01
     Exponent=  7.4950000000D+00 Coefficients=  4.4856400000D-01
     Exponent=  2.7970000000D+00 Coefficients=  2.8507400000D-01
     Exponent=  5.2150000000D-01 Coefficients=  1.5204000000D-02
     Exponent=  1.5960000000D-01 Coefficients= -3.1910000000D-03
 S 9 1.0
     Exponent=  6.6650000000D+03 Coefficients= -1.4600000000D-04
     Exponent=  1.0000000000D+03 Coefficients= -1.1540000000D-03
     Exponent=  2.2800000000D+02 Coefficients= -5.7250000000D-03
     Exponent=  6.4710000000D+01 Coefficients= -2.3312000000D-02
     Exponent=  2.1060000000D+01 Coefficients= -6.3955000000D-02
     Exponent=  7.4950000000D+00 Coefficients= -1.4998100000D-01
     Exponent=  2.7970000000D+00 Coefficients= -1.2726200000D-01
     Exponent=  5.2150000000D-01 Coefficients=  5.4452900000D-01
     Exponent=  1.5960000000D-01 Coefficients=  5.8049600000D-01
 S 1 1.0
     Exponent=  1.5960000000D-01 Coefficients=  1.0000000000D+00
 S 1 1.0
     Exponent=  4.6900000000D-02 Coefficients=  1.0000000000D+00
 S 1 1.0
     Exponent=  1.3800000000D-02 Coefficients=  1.0000000000D+00
 P 4 1.0
     Exponent=  9.4390000000D+00 Coefficients=  3.8109000000D-02
     Exponent=  2.0020000000D+00 Coefficients=  2.0948000000D-01
     Exponent=  5.4560000000D-01 Coefficients=  5.0855700000D-01
     Exponent=  1.5170000000D-01 Coefficients=  4.6884200000D-01
 P 1 1.0
     Exponent=  1.5170000000D-01 Coefficients=  1.0000000000D+00
 P 1 1.0
     Exponent=  4.0410000000D-02 Coefficients=  1.0000000000D+00
 P 1 1.0
     Exponent=  1.0800000000D-02 Coefficients=  1.0000000000D+00
 D 1 1.0
     Exponent=  5.5000000000D-01 Coefficients=  1.0000000000D+00
 D 1 1.0
     Exponent=  1.5100000000D-01 Coefficients=  1.0000000000D+00
 D 1 1.0
     Exponent=  4.1500000000D-02 Coefficients=  1.0000000000D+00
 ****
 Ernie: Thresh=  0.10000D-02 Tol=  0.10000D-05 Strict=F.
 Ernie:  6 primitive shells out of 82 were deleted.
 AO basis set in the form of general basis input (Overlap normalization):
      1 0
 S   8 1.00       0.000000000000
      0.6665000000D+04  0.6911871665D-03
      0.1000000000D+04  0.5322577364D-02
      0.2280000000D+03  0.2704512777D-01
      0.6471000000D+02  0.1015883442D+00
      0.2106000000D+02  0.2743843617D+00
      0.7495000000D+01  0.4477328995D+00
      0.2797000000D+01  0.2843702133D+00
      0.5215000000D+00  0.1819701823D-01
 S   7 1.00       0.000000000000
      0.6665000000D+04  0.7733547404D-05
      0.2280000000D+03  0.2780721367D-03
      0.6471000000D+02 -0.2578756542D-02
      0.2106000000D+02 -0.8950876838D-02
      0.7495000000D+01 -0.1060588547D+00
      0.2797000000D+01 -0.1315176856D+00
      0.5215000000D+00  0.1099486598D+01
 S   1 1.00       0.000000000000
      0.1596000000D+00  0.1000000000D+01
 S   1 1.00       0.000000000000
      0.4690000000D-01  0.1000000000D+01
 S   1 1.00       0.000000000000
      0.1380000000D-01  0.1000000000D+01
 P   4 1.00       0.000000000000
      0.9439000000D+01  0.3810902127D-01
      0.2002000000D+01  0.2094801169D+00
      0.5456000000D+00  0.5085572839D+00
      0.1517000000D+00  0.4688422617D+00
 P   1 1.00       0.000000000000
      0.1517000000D+00  0.1000000000D+01
 P   1 1.00       0.000000000000
      0.4041000000D-01  0.1000000000D+01
 P   1 1.00       0.000000000000
      0.1080000000D-01  0.1000000000D+01
 D   1 1.00       0.000000000000
      0.5500000000D+00  0.1000000000D+01
 D   1 1.00       0.000000000000
      0.1510000000D+00  0.1000000000D+01
 D   1 1.00       0.000000000000
      0.4150000000D-01  0.1000000000D+01
 ****
      2 0
 S   8 1.00       0.000000000000
      0.6665000000D+04  0.6911871665D-03
      0.1000000000D+04  0.5322577364D-02
      0.2280000000D+03  0.2704512777D-01
      0.6471000000D+02  0.1015883442D+00
      0.2106000000D+02  0.2743843617D+00
      0.7495000000D+01  0.4477328995D+00
      0.2797000000D+01  0.2843702133D+00
      0.5215000000D+00  0.1819701823D-01
 S   7 1.00       0.000000000000
      0.6665000000D+04  0.7733547404D-05
      0.2280000000D+03  0.2780721367D-03
      0.6471000000D+02 -0.2578756542D-02
      0.2106000000D+02 -0.8950876838D-02
      0.7495000000D+01 -0.1060588547D+00
      0.2797000000D+01 -0.1315176856D+00
      0.5215000000D+00  0.1099486598D+01
 S   1 1.00       0.000000000000
      0.1596000000D+00  0.1000000000D+01
 S   1 1.00       0.000000000000
      0.4690000000D-01  0.1000000000D+01
 S   1 1.00       0.000000000000
      0.1380000000D-01  0.1000000000D+01
 P   4 1.00       0.000000000000
      0.9439000000D+01  0.3810902127D-01
      0.2002000000D+01  0.2094801169D+00
      0.5456000000D+00  0.5085572839D+00
      0.1517000000D+00  0.4688422617D+00
 P   1 1.00       0.000000000000
      0.1517000000D+00  0.1000000000D+01
 P   1 1.00       0.000000000000
      0.4041000000D-01  0.1000000000D+01
 P   1 1.00       0.000000000000
      0.1080000000D-01  0.1000000000D+01
 D   1 1.00       0.000000000000
      0.5500000000D+00  0.1000000000D+01
 D   1 1.00       0.000000000000
      0.1510000000D+00  0.1000000000D+01
 D   1 1.00       0.000000000000
      0.4150000000D-01  0.1000000000D+01
 ****
      3 0
 S   4 1.00       0.000000000000
      0.1301000000D+02  0.1968498999D-01
      0.1962000000D+01  0.1379769298D+00
      0.4446000000D+00  0.4781477569D+00
      0.1220000000D+00  0.5012397451D+00
 S   1 1.00       0.000000000000
      0.1220000000D+00  0.1000000000D+01
 S   1 1.00       0.000000000000
      0.2974000000D-01  0.1000000000D+01
 S   1 1.00       0.000000000000
      0.7250000000D-02  0.1000000000D+01
 P   1 1.00       0.000000000000
      0.7270000000D+00  0.1000000000D+01
 P   1 1.00       0.000000000000
      0.1410000000D+00  0.1000000000D+01
 P   1 1.00       0.000000000000
      0.2730000000D-01  0.1000000000D+01
 ****
      4 0
 S   4 1.00       0.000000000000
      0.1301000000D+02  0.1968498999D-01
      0.1962000000D+01  0.1379769298D+00
      0.4446000000D+00  0.4781477569D+00
      0.1220000000D+00  0.5012397451D+00
 S   1 1.00       0.000000000000
      0.1220000000D+00  0.1000000000D+01
 S   1 1.00       0.000000000000
      0.2974000000D-01  0.1000000000D+01
 S   1 1.00       0.000000000000
      0.7250000000D-02  0.1000000000D+01
 P   1 1.00       0.000000000000
      0.7270000000D+00  0.1000000000D+01
 P   1 1.00       0.000000000000
      0.1410000000D+00  0.1000000000D+01
 P   1 1.00       0.000000000000
      0.2730000000D-01  0.1000000000D+01
 ****

 Integral buffers will be    131072 words long.
 Raffenetti 2 integral format.
 Two-electron integral symmetry is turned off.
    96 basis functions,   146 primitive gaussians,    96 cartesian basis functions
     7 alpha electrons        7 beta electrons
       nuclear repulsion energy        22.1932140866 Hartrees.
 IExCor= 4639 DFT=T Ex+Corr=wB97XD ExCW=0 ScaHFX=  1.000000
 ScaDFX=  1.000000  1.000000  1.000000  1.000000 ScalE2=  1.000000  1.000000
 IRadAn=      0 IRanWt=     -1 IRanGd=            0 ICorTp=0
  HFx wShort=  0.000000 wLong=  0.200000 cFull=  0.222036 cShort=  0.000000 cLong=  0.777964
  DFx wShort=  0.000000 wLong=  0.200000 cFull=  0.000000 cShort=  0.000000 cLong=  1.000000
 NAtoms=    4 NActive=    4 NUniq=    4 SFac= 7.50D-01 NAtFMM=   80 NAOKFM=F Big=F
 R6Disp: Dispersion energy =        -0.0003142869 Hartrees.
 Nuclear repulsion after empirical dispersion term =       22.1928997997 Hartrees.
 Leave Link  301 at Tue Jun 13 17:02:49 2023, MaxMem= 1966080000 cpu:       0.4
 (Enter /local/g09-source/g09/l302.exe)
 NPDir=0 NMtPBC=     1 NCelOv=     1 NCel=       1 NClECP=     1 NCelD=      1
         NCelK=      1 NCelE2=     1 NClLst=     1 CellRange=     0.0.
 One-electron integrals computed using PRISM.
 NBasis=    96 RedAO= T  NBF=    96
 NBsUse=    95 1.00D-06 NBFU=    95
 Precomputing XC quadrature grid using
 IXCGrd= 2 IRadAn=           0 IRanWt=          -1 IRanGd=           0 AccXCQ= 1.00D-10.
 NRdTot=     266 NPtTot=       34180 NUsed=       36107 NTot=       36139
 NSgBfM=    96    96    96    96    96 NAtAll=     4     4.
 Leave Link  302 at Tue Jun 13 17:02:49 2023, MaxMem= 1966080000 cpu:       1.3
 (Enter /local/g09-source/g09/l303.exe)
 DipDrv:  MaxL=1.
 Leave Link  303 at Tue Jun 13 17:02:49 2023, MaxMem= 1966080000 cpu:       0.3
 (Enter /local/g09-source/g09/l401.exe)
 Initial guess read from the checkpoint file:  neu.chk
 B after Tr=    -0.000078    0.000327    0.000250
         Rot=    1.000000   -0.000023    0.000246   -0.000025 Ang=   0.03 deg.
 Guess basis will be translated and rotated to current coordinates.
 Leave Link  401 at Tue Jun 13 17:02:49 2023, MaxMem= 1966080000 cpu:       0.8
 (Enter /local/g09-source/g09/l502.exe)
 Closed shell SCF:
 Requested convergence on RMS density matrix=1.00D-07 within 200 cycles.
 Requested convergence on MAX density matrix=1.00D-05.
 Requested convergence on             energy=1.00D-05.
 No special actions if energy rises.
 Using DIIS extrapolation, IDIIS=  1040.
 Two-electron integral symmetry not used.
        36058 words used for storage of precomputed grid.
 IEnd=      106988 IEndB=      106988 NGot=  1966080000 MDV=  1966022725
 LenX=  1966022725 LenY=  1966013068
 Fock matrices will be formed incrementally for  20 cycles.

 Cycle   1  Pass 1  IDiag  1:
 FoFJK:  IHMeth= 1 ICntrl=     0 DoSepK=T KAlg= 1 I1Cent= 0 FoldK=F
 FoFCou: FMM=F IPFlag=           0 FMFlag=      100000 FMFlg1=           0
         NFxFlg=           0 DoJE=T BraDBF=F KetDBF=F FulRan=T
         Omega=  0.000000  0.000000  1.000000  0.000000  0.000000 ICntrl=     500 IOpCl=  0
         NMat0=    1 NMatS0=    1 NMatT0=    0 NMatD0=    1 NMtDS0=    0 NMtDT0=    0
         I1Cent=           0 NGrid=           0.
 Symmetry not used in FoFCou.
 E= -77.2152232719393    
 DIIS: error= 4.78D-04 at cycle   1 NSaved=   1.
 NSaved= 1 IEnMin= 1 EnMin= -77.2152232719393     IErMin= 1 ErrMin= 4.78D-04
 ErrMax= 4.78D-04 EMaxC= 1.00D-01 BMatC= 3.79D-05 BMatP= 3.79D-05
 IDIUse=3 WtCom= 9.95D-01 WtEn= 4.78D-03
 Coeff-Com:  0.100D+01
 Coeff-En:   0.100D+01
 Coeff:      0.100D+01
 Gap=     0.337 Goal=   None    Shift=    0.000
 RMSDP=9.20D-04 MaxDP=1.62D-02              OVMax= 2.83D-03

 Cycle   2  Pass 1  IDiag  1:
 RMSU=  5.90D-04    CP:  1.01D+00
 FoFJK:  IHMeth= 1 ICntrl=     0 DoSepK=T KAlg= 1 I1Cent= 0 FoldK=F
 E= -77.2152695224746     Delta-E=       -0.000046250535 Rises=F Damp=F
 DIIS: error= 1.47D-04 at cycle   2 NSaved=   2.
 NSaved= 2 IEnMin= 2 EnMin= -77.2152695224746     IErMin= 2 ErrMin= 1.47D-04
 ErrMax= 1.47D-04 EMaxC= 1.00D-01 BMatC= 3.65D-06 BMatP= 3.79D-05
 IDIUse=3 WtCom= 9.99D-01 WtEn= 1.47D-03
 Coeff-Com:  0.104D+00 0.896D+00
 Coeff-En:   0.000D+00 0.100D+01
 Coeff:      0.104D+00 0.896D+00
 Gap=     0.332 Goal=   None    Shift=    0.000
 RMSDP=1.31D-04 MaxDP=2.27D-03 DE=-4.63D-05 OVMax= 1.27D-03

 Cycle   3  Pass 1  IDiag  1:
 RMSU=  6.93D-05    CP:  1.01D+00  1.10D+00
 FoFJK:  IHMeth= 1 ICntrl=     0 DoSepK=T KAlg= 1 I1Cent= 0 FoldK=F
 E= -77.2152737149289     Delta-E=       -0.000004192454 Rises=F Damp=F
 DIIS: error= 8.99D-05 at cycle   3 NSaved=   3.
 NSaved= 3 IEnMin= 3 EnMin= -77.2152737149289     IErMin= 3 ErrMin= 8.99D-05
 ErrMax= 8.99D-05 EMaxC= 1.00D-01 BMatC= 1.06D-06 BMatP= 3.65D-06
 IDIUse=1 WtCom= 1.00D+00 WtEn= 0.00D+00
 Coeff-Com: -0.401D-01 0.311D+00 0.729D+00
 Coeff:     -0.401D-01 0.311D+00 0.729D+00
 Gap=     0.332 Goal=   None    Shift=    0.000
 RMSDP=4.38D-05 MaxDP=1.05D-03 DE=-4.19D-06 OVMax= 5.72D-04

 Cycle   4  Pass 1  IDiag  1:
 RMSU=  1.87D-05    CP:  1.01D+00  1.13D+00  9.45D-01
 FoFJK:  IHMeth= 1 ICntrl=     0 DoSepK=T KAlg= 1 I1Cent= 0 FoldK=F
 E= -77.2152750532344     Delta-E=       -0.000001338306 Rises=F Damp=F
 DIIS: error= 4.49D-05 at cycle   4 NSaved=   4.
 NSaved= 4 IEnMin= 4 EnMin= -77.2152750532344     IErMin= 4 ErrMin= 4.49D-05
 ErrMax= 4.49D-05 EMaxC= 1.00D-01 BMatC= 1.43D-07 BMatP= 1.06D-06
 IDIUse=1 WtCom= 1.00D+00 WtEn= 0.00D+00
 Coeff-Com: -0.234D-01 0.653D-01 0.304D+00 0.654D+00
 Coeff:     -0.234D-01 0.653D-01 0.304D+00 0.654D+00
 Gap=     0.332 Goal=   None    Shift=    0.000
 RMSDP=1.04D-05 MaxDP=2.71D-04 DE=-1.34D-06 OVMax= 2.67D-04

 Cycle   5  Pass 1  IDiag  1:
 RMSU=  6.77D-06    CP:  1.01D+00  1.14D+00  9.75D-01  9.87D-01
 FoFJK:  IHMeth= 1 ICntrl=     0 DoSepK=T KAlg= 1 I1Cent= 0 FoldK=F
 E= -77.2152752458424     Delta-E=       -0.000000192608 Rises=F Damp=F
 DIIS: error= 1.25D-05 at cycle   5 NSaved=   5.
 NSaved= 5 IEnMin= 5 EnMin= -77.2152752458424     IErMin= 5 ErrMin= 1.25D-05
 ErrMax= 1.25D-05 EMaxC= 1.00D-01 BMatC= 1.77D-08 BMatP= 1.43D-07
 IDIUse=1 WtCom= 1.00D+00 WtEn= 0.00D+00
 Coeff-Com:  0.283D-02-0.488D-01-0.679D-01 0.198D+00 0.916D+00
 Coeff:      0.283D-02-0.488D-01-0.679D-01 0.198D+00 0.916D+00
 Gap=     0.332 Goal=   None    Shift=    0.000
 RMSDP=4.90D-06 MaxDP=8.71D-05 DE=-1.93D-07 OVMax= 1.21D-04

 Cycle   6  Pass 1  IDiag  1:
 RMSU=  2.45D-06    CP:  1.01D+00  1.14D+00  9.96D-01  1.09D+00  1.00D+00
 FoFJK:  IHMeth= 1 ICntrl=     0 DoSepK=T KAlg= 1 I1Cent= 0 FoldK=F
 E= -77.2152752827162     Delta-E=       -0.000000036874 Rises=F Damp=F
 DIIS: error= 2.68D-06 at cycle   6 NSaved=   6.
 NSaved= 6 IEnMin= 6 EnMin= -77.2152752827162     IErMin= 6 ErrMin= 2.68D-06
 ErrMax= 2.68D-06 EMaxC= 1.00D-01 BMatC= 7.78D-10 BMatP= 1.77D-08
 IDIUse=1 WtCom= 1.00D+00 WtEn= 0.00D+00
 Coeff-Com:  0.257D-02-0.837D-02-0.332D-01-0.355D-01-0.142D-01 0.109D+01
 Coeff:      0.257D-02-0.837D-02-0.332D-01-0.355D-01-0.142D-01 0.109D+01
 Gap=     0.332 Goal=   None    Shift=    0.000
 RMSDP=1.63D-06 MaxDP=4.40D-05 DE=-3.69D-08 OVMax= 6.34D-05

 Cycle   7  Pass 1  IDiag  1:
 RMSU=  6.48D-07    CP:  1.01D+00  1.14D+00  9.93D-01  1.11D+00  1.06D+00
                    CP:  1.30D+00
 FoFJK:  IHMeth= 1 ICntrl=     0 DoSepK=T KAlg= 1 I1Cent= 0 FoldK=F
 E= -77.2152752872445     Delta-E=       -0.000000004528 Rises=F Damp=F
 DIIS: error= 1.01D-06 at cycle   7 NSaved=   7.
 NSaved= 7 IEnMin= 7 EnMin= -77.2152752872445     IErMin= 7 ErrMin= 1.01D-06
 ErrMax= 1.01D-06 EMaxC= 1.00D-01 BMatC= 1.26D-10 BMatP= 7.78D-10
 IDIUse=1 WtCom= 1.00D+00 WtEn= 0.00D+00
 Coeff-Com: -0.193D-03 0.583D-02 0.666D-02-0.243D-01-0.121D+00 0.714D-02
 Coeff-Com:  0.113D+01
 Coeff:     -0.193D-03 0.583D-02 0.666D-02-0.243D-01-0.121D+00 0.714D-02
 Coeff:      0.113D+01
 Gap=     0.332 Goal=   None    Shift=    0.000
 RMSDP=6.77D-07 MaxDP=1.98D-05 DE=-4.53D-09 OVMax= 2.96D-05

 Cycle   8  Pass 1  IDiag  1:
 RMSU=  2.62D-07    CP:  1.01D+00  1.14D+00  9.93D-01  1.11D+00  1.07D+00
                    CP:  1.43D+00  1.35D+00
 FoFJK:  IHMeth= 1 ICntrl=     0 DoSepK=T KAlg= 1 I1Cent= 0 FoldK=F
 E= -77.2152752879670     Delta-E=       -0.000000000723 Rises=F Damp=F
 DIIS: error= 3.05D-07 at cycle   8 NSaved=   8.
 NSaved= 8 IEnMin= 8 EnMin= -77.2152752879670     IErMin= 8 ErrMin= 3.05D-07
 ErrMax= 3.05D-07 EMaxC= 1.00D-01 BMatC= 9.07D-12 BMatP= 1.26D-10
 IDIUse=1 WtCom= 1.00D+00 WtEn= 0.00D+00
 Coeff-Com: -0.185D-03-0.204D-03 0.190D-02 0.672D-02 0.277D-01-0.109D+00
 Coeff-Com: -0.212D+00 0.129D+01
 Coeff:     -0.185D-03-0.204D-03 0.190D-02 0.672D-02 0.277D-01-0.109D+00
 Coeff:     -0.212D+00 0.129D+01
 Gap=     0.332 Goal=   None    Shift=    0.000
 RMSDP=2.95D-07 MaxDP=6.60D-06 DE=-7.23D-10 OVMax= 1.10D-05

 Cycle   9  Pass 1  IDiag  1:
 RMSU=  5.68D-08    CP:  1.01D+00  1.14D+00  9.93D-01  1.11D+00  1.07D+00
                    CP:  1.44D+00  1.48D+00  1.48D+00
 FoFJK:  IHMeth= 1 ICntrl=     0 DoSepK=T KAlg= 1 I1Cent= 0 FoldK=F
 E= -77.2152752880392     Delta-E=       -0.000000000072 Rises=F Damp=F
 DIIS: error= 5.90D-08 at cycle   9 NSaved=   9.
 NSaved= 9 IEnMin= 9 EnMin= -77.2152752880392     IErMin= 9 ErrMin= 5.90D-08
 ErrMax= 5.90D-08 EMaxC= 1.00D-01 BMatC= 6.53D-13 BMatP= 9.07D-12
 IDIUse=1 WtCom= 1.00D+00 WtEn= 0.00D+00
 Coeff-Com:  0.650D-04-0.468D-03-0.986D-03-0.158D-03 0.582D-02 0.151D-01
 Coeff-Com: -0.535D-01-0.197D+00 0.123D+01
 Coeff:      0.650D-04-0.468D-03-0.986D-03-0.158D-03 0.582D-02 0.151D-01
 Coeff:     -0.535D-01-0.197D+00 0.123D+01
 Gap=     0.332 Goal=   None    Shift=    0.000
 RMSDP=6.21D-08 MaxDP=1.44D-06 DE=-7.22D-11 OVMax= 2.50D-06

 SCF Done:  E(RwB97XD) =  -77.2152752880     A.U. after    9 cycles
             Convg  =    0.6208D-07             -V/T =  2.0142
 KE= 7.613263323253D+01 PE=-2.227178630494D+02 EE= 4.717705472911D+01
 Leave Link  502 at Tue Jun 13 17:02:57 2023, MaxMem= 1966080000 cpu:      46.9
 (Enter /local/g09-source/g09/l601.exe)
 Copying SCF densities to generalized density rwf, IOpCl= 0 IROHF=0.

 **********************************************************************

            Population analysis using the SCF density.

 **********************************************************************

 Alpha  occ. eigenvalues --  -10.38685 -10.34763  -0.86498  -0.62112  -0.51172
 Alpha  occ. eigenvalues --   -0.39476  -0.37619
 Alpha virt. eigenvalues --   -0.04449   0.00785   0.01270   0.01977   0.02507
 Alpha virt. eigenvalues --    0.03402   0.03602   0.03720   0.03813   0.04237
 Alpha virt. eigenvalues --    0.05587   0.06225   0.07231   0.07623   0.08837
 Alpha virt. eigenvalues --    0.09067   0.09213   0.09438   0.10203   0.11848
 Alpha virt. eigenvalues --    0.14302   0.15640   0.15940   0.17084   0.17440
 Alpha virt. eigenvalues --    0.17490   0.17957   0.19029   0.19773   0.20010
 Alpha virt. eigenvalues --    0.20363   0.21681   0.21741   0.23358   0.24185
 Alpha virt. eigenvalues --    0.24456   0.25013   0.30040   0.33026   0.34232
 Alpha virt. eigenvalues --    0.34948   0.40795   0.42286   0.44174   0.46650
 Alpha virt. eigenvalues --    0.48921   0.51047   0.51164   0.57207   0.57344
 Alpha virt. eigenvalues --    0.60265   0.60766   0.62708   0.66287   0.67750
 Alpha virt. eigenvalues --    0.69087   0.70468   0.71468   0.73308   0.78127
 Alpha virt. eigenvalues --    0.85287   0.90105   0.90923   0.95912   1.08543
 Alpha virt. eigenvalues --    1.20521   1.34206   1.40997   1.44524   1.46397
 Alpha virt. eigenvalues --    1.54879   1.57662   1.60437   1.70660   1.71803
 Alpha virt. eigenvalues --    1.73011   1.77729   1.97073   1.98964   2.05921
 Alpha virt. eigenvalues --    2.08360   2.12701   2.30174   2.44027   2.54209
 Alpha virt. eigenvalues --    2.64964   5.13231   5.58875
     Molecular Orbital Coefficients:
                           1         2         3         4         5
                           O         O         O         O         O
     Eigenvalues --  -.10386851978490E+02 -.10347631689220E+02 -.86497584830045E+00 -.62112394116094E+00 -.51172297698521E+00
   1 1   C  1S       0.99884539124697E+00 -.10577625601986E-01 -.14018741164919E+00 -.12718723106493E+00 0.59278011628179E-02
   2        2S       0.12086960342401E-01 0.23535953001067E-03 0.27539865739342E+00 0.26381802834601E+00 -.12985175176028E-01
   3        3S       -.13685398147984E-01 -.95709229758395E-02 0.17042254518710E+00 0.63326845726987E+00 -.10330588094399E+00
   4        4S       0.23506757168417E-02 0.12431404610988E-01 0.76361015887090E-01 0.59196900931766E-01 -.17221793671908E-01
   5        5S       -.15701039351285E-01 0.19329243730958E-02 -.45731127644429E-01 0.16725702214367E-01 -.18624325894839E-01
   6        6PX      0.37551382937366E-03 0.67951271024744E-04 0.31962166044958E-01 0.28696516068893E-05 0.19769836474962E+00
   7        6PY      0.86918085108371E-03 0.14920199611508E-03 0.65063873794448E-01 0.22690644452325E-01 -.10875133725573E+00
   8        6PZ      0.36070928014949E-02 0.59792968881933E-03 0.26887286166528E+00 0.92651034765114E-01 0.33299224924408E-02
   9        7PX      -.14467460469362E-02 -.61044215642463E-03 -.10222798141137E-01 0.10058067504965E-03 -.98272789822267E-01
  10        7PY      -.25599768877109E-02 -.10146561942534E-02 -.35897041380058E-01 0.34852619828052E-01 0.45928072132445E-01
  11        7PZ      -.11366585351733E-01 -.46601735776951E-02 -.13586441314542E+00 0.12504289517484E+00 -.35220322289417E-01
  12        8PX      0.59448921474144E-03 -.41041903119038E-05 0.33594046343184E-02 0.37886109757511E-01 -.34774544290180E-01
  13        8PY      0.58434283879662E-03 0.50980687987580E-03 -.93986720127037E-02 -.37331348162956E-01 0.14363990825263E-01
  14        8PZ      0.32828006278309E-02 0.29101153478749E-02 -.17474279604246E-01 0.21929762093979E-02 -.92856602857408E-02
  15        9PX      -.82930452496246E-04 0.15931870022395E-03 -.12708531656734E-02 0.70730424995786E-03 -.51166425511208E-03
  16        9PY      -.25311098924088E-03 0.59189010958991E-04 -.15858408951323E-02 -.15530578757957E-03 -.10544243401944E-02
  17        9PZ      -.11578944274383E-02 0.11205598701381E-03 -.63043579123610E-02 -.11808711320543E-03 -.29381693797693E-02
  18       10XX      -.57390178245519E-02 0.73586990216823E-04 -.13586770027587E-01 -.79975405612266E-02 0.42125335640451E-02
  19       10YY      -.56003092287742E-02 0.74243970758363E-04 -.14067624863617E-01 -.85101864652116E-02 -.44005937912308E-02
  20       10ZZ      -.46501722974319E-02 -.83892203997976E-05 0.13754626924808E-01 -.77095795090228E-02 0.12271211140104E-02
  21       10XY      0.10758634757675E-03 -.38214251224240E-05 -.31488135544466E-03 -.12861800399765E-02 0.32333095168852E-02
  22       10XZ      0.10967317132920E-03 -.22355384633007E-04 0.46271301630326E-02 -.15196757104745E-02 0.19377216551919E-01
  23       10YZ      0.27526395521953E-03 -.27742157164095E-04 0.79735019567638E-02 0.41753104209714E-03 -.10277876021735E-01
  24       11XX      0.22216618971772E-02 -.76365704579833E-03 -.22501219355932E-01 -.26939480441172E-01 -.50557391802614E-02
  25       11YY      0.22376432732218E-02 -.71942252100432E-03 -.25127399439686E-01 -.16751959281983E-01 0.76503178677828E-03
  26       11ZZ      -.93316043307521E-03 -.14295548602348E-02 -.41888248859072E-01 0.17654196141389E-01 -.72074469693570E-02
  27       11XY      0.20985967530803E-04 0.67190406850464E-04 -.20845031681082E-03 0.60007705393343E-02 -.42118601818522E-02
  28       11XZ      -.49213310728991E-03 -.71545159516483E-04 0.58426875669750E-03 -.28694114082752E-02 -.20243718442983E-01
  29       11YZ      -.87627850886782E-03 -.18241044280851E-03 -.66493800916810E-02 0.11412768024781E-01 0.11083742149831E-01
  30       12XX      0.33292572276954E-02 -.90261812569464E-03 -.92015720265273E-02 -.11210178833911E-01 -.31381973707326E-02
  31       12YY      0.32986742056336E-02 -.88487436762737E-03 -.54678698282987E-02 -.20309738712796E-01 0.29779339433884E-02
  32       12ZZ      0.42045382389613E-02 -.52880747939585E-03 -.10679401479898E-01 -.12198867994326E-01 -.18773114410108E-02
  33       12XY      0.52771425443791E-05 -.49028095474230E-05 0.40968868848945E-02 -.14952436801352E-02 0.29033549063744E-03
  34       12XZ      0.18927724240628E-03 -.30470795667169E-04 -.49192794990072E-03 0.11590996191023E-01 -.68008446664332E-02
  35       12YZ      0.20238613194173E-03 0.40320378610245E-04 -.32876777215013E-02 -.74905066842943E-02 0.17091676010106E-02
  36 2   C  1S       0.10495046294959E-01 0.99849121305031E+00 -.16966607030904E+00 0.84232239602544E-01 0.57266527110130E-02
  37        2S       0.80106721624583E-03 0.13793923528002E-01 0.33066501287713E+00 -.16925279739983E+00 -.10839718177590E-01
  38        3S       0.23661857601717E-01 0.17493887753028E-01 0.36996468420026E+00 -.43161992355830E+00 0.74472027292971E-01
  39        4S       0.57718330432671E-02 0.12809452376222E-01 0.85260772708665E-01 0.32997628627709E-01 -.98850386045199E-02
  40        5S       0.16361466607118E-01 0.36255450261576E-02 0.81452980016598E-01 0.57497673320437E-02 0.17442831189567E-01
  41        6PX      0.44783529041211E-04 0.15880558611362E-03 -.71841868434176E-02 -.85806776736109E-01 0.54606200766194E+00
  42        6PY      0.69882845899618E-04 0.43901279780110E-07 -.47552852302337E-01 -.12598781432503E+00 -.30746880745480E+00
  43        6PZ      0.38748716724688E-03 0.13661941598172E-03 -.18596518254766E+00 -.49717164083579E+00 -.94851739210398E-02
  44        7PX      0.11705662134954E-03 -.43655340438273E-03 -.15314992302199E-01 0.58390752510860E-01 -.12408767108921E+00
  45        7PY      -.12183324356244E-02 -.49114392565126E-03 0.23568840211507E-01 0.80456925821354E-01 0.63559680104429E-01
  46        7PZ      -.47991399631939E-02 -.28279431945745E-02 0.50593501951628E-01 0.33692129891588E+00 -.20143747910986E-01
  47        8PX      0.93871729956542E-03 0.20273460908358E-02 0.60441005606876E-03 -.32242664507006E-01 -.34846182617274E-01
  48        8PY      0.16863778127687E-02 0.29916076971359E-02 0.22356763687868E-01 0.33438095513211E-01 0.24080405779544E-01
  49        8PZ      0.55462733872446E-02 0.99594813939616E-02 0.57394079556854E-01 0.16210050968368E-02 0.61232281386801E-02
  50        9PX      -.17024477605027E-03 -.97733205333997E-04 -.51389723650003E-03 0.24478559587701E-03 -.13732841388714E-01
  51        9PY      -.45110075341194E-03 0.72507986028535E-04 0.10828601401602E-02 0.33095448125287E-03 0.87709384102611E-02
  52        9PZ      -.16787736088741E-02 0.31516666023214E-03 0.22461367731871E-03 0.35533188962377E-02 0.17314456357937E-02
  53       10XX      0.14132917128400E-03 -.63238397233171E-02 -.11160665660914E-01 -.76229922957963E-02 0.62300328218860E-02
  54       10YY      0.63259160898623E-04 -.62941256673719E-02 -.11509687118309E-01 0.79140364218103E-03 -.17820351267496E-02
  55       10ZZ      -.11599691373696E-02 -.61083410206649E-02 0.97302713919601E-02 0.15146827488329E-01 -.40225171628819E-02
  56       10XY      -.16516022316342E-04 0.54786522187949E-04 -.96553370798393E-03 0.79022186575344E-02 -.29528261278023E-03
  57       10XZ      -.12581933937613E-03 0.52830211177530E-04 0.23544505808540E-02 0.14196986532474E-02 0.58151273440638E-02
  58       10YZ      -.41344582567430E-03 0.10931060826408E-04 0.69406976406444E-02 0.21400179005205E-02 -.49770827618429E-02
  59       11XX      0.32285949147953E-02 0.59186281319580E-02 0.10750273954898E-02 0.45359105573787E-01 -.89579221676141E-02
  60       11YY      0.25885102015497E-02 0.56069663008377E-02 -.14700723627424E-02 0.19170191919416E-01 0.25967777416894E-01
  61       11ZZ      0.60109647618856E-02 0.77360029514635E-02 -.17193840652832E-03 -.99412052660024E-01 0.41979311080103E-01
  62       11XY      -.77943772822149E-03 -.49699606271116E-03 -.38367384840295E-02 -.32307438668725E-01 -.14110962534443E-01
  63       11XZ      0.39412724082543E-03 0.14714400994102E-03 0.69008713717999E-03 -.30571572080130E-01 -.68163933770863E-01
  64       11YZ      0.14377686182297E-02 0.98703616721059E-03 0.10059216187543E-02 -.25922219739086E-01 0.53390472841762E-01
  65       12XX      0.35090668231357E-02 0.12777216777637E-01 0.22596946548339E-01 0.30230561592787E-01 -.19000308253535E-01
  66       12YY      0.29131794463625E-02 0.11623835524413E-01 0.10226555228215E-01 0.23534533764737E-01 -.17912368796407E-01
  67       12ZZ      0.25772141741067E-02 0.10832844929623E-01 0.34530719467728E-02 0.28304781519930E-01 -.16331550295189E-01
  68       12XY      -.58418956444274E-03 -.12692056360821E-02 -.10519134559783E-01 0.44860431509208E-03 -.47524677393522E-02
  69       12XZ      -.34114463780483E-04 -.35360037978749E-03 0.22406502354075E-02 0.85439459545288E-02 -.13853457792881E-01
  70       12YZ      0.16425323244412E-04 0.63216042837576E-04 -.17810139648429E-02 -.11336415971552E-01 0.94879516318614E-02
  71 3   H  1S       -.29605402704659E-03 0.80594837765679E-03 0.18686931450808E+00 -.39171672291668E+00 0.53506944765492E+00
  72        2S       -.72966521159479E-02 -.60156602276367E-02 -.10418734036124E+00 0.88148875426074E-01 -.62606332685741E-01
  73        3S       -.14235872598846E-01 -.28193732146072E-01 -.64126254897793E-01 -.74259816866731E-01 0.24301698336992E+00
  74        4S       -.87605104260351E-04 -.53119071987101E-03 -.16120610122924E-02 -.42243671608549E-02 0.29293524692553E-01
  75        5PX      -.30544363414741E-04 -.77332464070112E-04 -.12815899556272E-01 0.15506395962995E-01 -.10734775286577E-01
  76        5PY      0.48428283110489E-04 0.15069093381184E-04 0.35224916551669E-02 -.73188009415644E-02 0.12757562979890E-02
  77        5PZ      0.12005611253805E-03 -.62983948969378E-04 -.93813680416538E-02 0.16361884458762E-02 -.10527788361527E-01
  78        6PX      0.19959363606495E-02 0.13156902453027E-02 0.16608879824844E-02 0.78088579760813E-02 -.26560719136667E-01
  79        6PY      -.72015109141087E-03 -.41028069685170E-03 0.10939877013178E-03 0.73477961680212E-02 0.10667872619307E-01
  80        6PZ      0.83196976592253E-03 0.75247122109907E-03 0.71406518892667E-03 0.28988991462180E-01 -.28648510004821E-02
  81        7PX      0.18184671324083E-02 0.36392647231617E-02 0.35407859648906E-02 0.10696480396531E-01 -.39685128675013E-01
  82        7PY      -.38640134835009E-03 -.74911181893514E-03 -.27107991663845E-02 -.21539316561868E-02 0.88862656542550E-02
  83        7PZ      0.15093491283316E-02 0.29001732140911E-02 -.38112094347527E-02 0.53369039448009E-02 -.28832498721312E-01
  84 4   H  1S       -.37292010727353E-04 0.71676897575941E-03 0.15357586213802E+00 -.41837030172961E+00 -.50980989092635E+00
  85        2S       -.75930974723181E-02 -.70941086971508E-02 -.12035870692133E+00 0.91044643550493E-01 -.33234471769678E-01
  86        3S       -.13650021628864E-01 -.29638828496738E-01 -.68716670713231E-01 -.40759977928000E-01 -.16261726457505E+00
  87        4S       0.23201553169629E-03 -.61457331381571E-03 -.63720912781345E-02 -.13800483225715E-02 -.28980370841230E-01
  88        5PX      0.14723030750017E-03 0.64796757838228E-04 0.67215412124036E-02 -.13829587445550E-01 -.38162396100189E-02
  89        5PY      -.81379591276537E-04 -.87758681921779E-04 -.71476283052838E-02 0.10752855590322E-01 0.76938804002505E-02
  90        5PZ      0.56612539303535E-04 -.13039903536325E-03 -.90446327560951E-02 0.62626262049255E-02 0.13048859618086E-01
  91        6PX      -.15353522993599E-02 -.11505942529888E-02 -.57218516808792E-02 0.53703773094281E-02 -.34284698565250E-01
  92        6PY      0.13611594324425E-02 0.11151959692345E-02 0.78327016019125E-02 0.10249116879035E-01 0.30885165801472E-01
  93        6PZ      0.11051432525079E-02 0.11120129803397E-02 0.12406064333485E-01 0.32587715057450E-01 0.19698413704698E-01
  94        7PX      -.89881039865733E-03 -.20902517207774E-02 -.22162905907750E-03 -.12124399831105E-02 -.13569994381379E-01
  95        7PY      0.12390690924862E-02 0.27547608352753E-02 0.13577010713052E-02 0.38605032045531E-02 0.15543023031905E-01
  96        7PZ      0.18457466861823E-02 0.37188571486855E-02 0.28328804418515E-02 0.35527414348280E-02 0.17049309360899E-01
                           6         7         8         9        10
                           O         O         V         V         V
     Eigenvalues --  -.39476067038663E+00 -.37618810781080E+00 -.44485735342927E-01 0.78496279081901E-02 0.12699578713753E-01
   1 1   C  1S       0.11217632116025E+00 0.73032896899240E-02 -.26613439963228E-02 -.32875977549115E-02 0.30138521890948E-03
   2        2S       -.23448745703920E+00 -.14848663055257E-01 0.67124112051187E-02 0.43602456871963E-02 -.14790868993713E-02
   3        3S       -.11988245114942E+00 -.27358462274006E-01 0.11003316609074E-02 -.18138497996900E+00 -.33929414167375E-01
   4        4S       -.76228959902752E-02 -.49302246076736E-02 0.31635205557473E-02 0.19887775859287E+01 -.22308380365239E+00
   5        5S       -.12115010757013E+00 -.11542715506932E-01 -.96279562497572E-02 -.21200697113587E+01 0.13305774290530E+01
   6        6PX      0.36367828548951E-01 0.28911474730881E+00 0.70377279660527E+00 0.19802260293206E-02 0.25081834929666E-02
   7        6PY      0.14036085027635E+00 0.52695690667273E+00 -.37897449242331E+00 -.71278640201303E-02 -.47068590621513E-03
   8        6PZ      0.70732010819511E+00 -.91836223059043E-01 0.51383089221924E-01 -.33159685647677E-01 0.24414596015954E-02
   9        7PX      0.53999021468598E-02 -.29716997044640E-01 0.39410424088509E-01 -.17089299531920E-01 -.72203979227182E-03
  10        7PY      0.16183586984777E-01 -.55438589850996E-01 -.24371102867853E-01 -.21234404126139E-01 -.36506044705583E-02
  11        7PZ      0.52782959760472E-01 0.77957191897412E-02 -.65353687829116E-02 -.10132216213097E+00 -.14719804941052E-01
  12        8PX      0.26802787520449E-01 0.13004298636818E-01 0.14469375822331E+00 0.12020241659907E+00 0.12522578811585E+00
  13        8PY      -.24337672502085E-01 0.15719765388915E-01 -.75907345639548E-01 0.13085650044338E+00 -.11116939130333E+00
  14        8PZ      0.17226556757384E-01 -.88384329490217E-02 0.83486433778497E-02 0.72402762152273E+00 -.11877009081589E+00
  15        9PX      -.12387901387719E-02 0.21419441745895E-03 0.27166798888344E-01 0.41113995438507E-01 0.44264492602283E+00
  16        9PY      -.30019624351475E-02 0.72080502395852E-03 -.15379290089680E-01 -.76519464922928E-01 -.23469555047997E+00
  17        9PZ      -.11862462421251E-01 -.23931887075759E-02 -.25008544928130E-03 -.31656066258668E+00 0.88933434889688E-01
  18       10XX      -.12221251243815E-01 0.20727675810909E-02 0.10778399198615E-02 -.51549159098827E-03 -.27755317661457E-03
  19       10YY      -.74971539644888E-02 0.11788524564202E-01 -.32679662563187E-02 -.90503648208251E-03 0.35677047104193E-03
  20       10ZZ      0.40956357239592E-01 -.12696585913272E-01 0.57399614091676E-03 0.15606656184003E-03 -.11475745519128E-03
  21       10XY      0.28580289456611E-02 0.75625355007749E-02 0.26653313805602E-02 -.52782684648213E-03 -.11112578447978E-03
  22       10XZ      0.30416829196113E-02 0.16020353520737E-01 0.12342208453798E-01 0.85246358267163E-04 -.11248302746811E-02
  23       10YZ      0.12098917788531E-01 0.28908347150650E-01 -.65713392084353E-02 0.55521147448681E-03 0.55873838932683E-03
  24       11XX      0.14833096038055E-01 0.12012857250615E-02 0.18351509190093E-02 -.20886789345085E-01 -.16974735355271E-02
  25       11YY      0.24342424535878E-01 0.40269419162021E-02 -.44116366682848E-02 -.16335711647693E-01 -.37667875529970E-02
  26       11ZZ      0.77148718022158E-01 -.41237489859952E-02 -.21260974965264E-02 -.55598476346732E-01 -.87849231262576E-02
  27       11XY      0.72884006365082E-02 0.31121097411517E-02 0.32999379579984E-02 0.48441874086970E-02 -.85134396359417E-03
  28       11XZ      0.33434894602644E-02 0.56671421992225E-02 0.15746376018426E-01 -.61660325856980E-02 -.29359999805369E-02
  29       11YZ      0.14146106781094E-01 0.99148814518854E-02 -.96296633276736E-02 -.11284520166437E-01 -.17700005344904E-03
  30       12XX      0.32655610668829E-01 0.19093532475621E-02 0.46016077000686E-02 0.18722311856510E-02 -.41865546136804E-01
  31       12YY      0.28391833326645E-01 0.26487654957794E-02 -.15059438685824E-02 -.65412888150312E-02 -.42341077119035E-01
  32       12ZZ      0.23329642501580E-01 -.21889049578119E-02 0.21492356373946E-03 0.16706362256931E+00 -.71268892972063E-01
  33       12XY      0.73797745487869E-03 0.12345195328300E-02 0.20000999580584E-02 -.45453279712968E-02 0.14317850643816E-01
  34       12XZ      0.55571300509230E-02 0.17862922991577E-02 0.81792605847958E-02 0.31816174890703E-01 0.24431841838148E-01
  35       12YZ      -.89873318109800E-02 0.15054484845165E-02 -.43506086559363E-02 0.41822592718380E-01 -.30157065014257E-01
  36 2   C  1S       -.53127624004059E-01 0.49911694012930E-03 0.29637144232071E-02 -.12078424333385E-01 0.25490443339635E-03
  37        2S       0.11515359032601E+00 -.33403491482098E-03 -.69162185388885E-02 0.36865259911439E-01 -.14658744028466E-02
  38        3S       -.93365528094661E-01 0.68266126809270E-03 0.43662181344098E-02 0.46748077876842E+00 -.16661912271948E-01
  39        4S       0.35121633596793E-01 -.19968829515202E-02 0.62519376476001E-02 0.24256106687698E+01 -.32182444532147E+00
  40        5S       0.14461422922262E+00 0.12533368513518E-01 0.11613279626769E-01 0.60399141200594E+01 -.16106944917624E+01
  41        6PX      -.91009816511623E-01 0.29449700446023E+00 0.22367758631341E-01 0.56962460340713E-02 -.25905032874082E-01
  42        6PY      -.12866220023290E+00 0.53256608161408E+00 -.20264010836309E-01 0.13386614209059E-01 0.13715236053574E-01
  43        6PZ      -.36011158322806E+00 -.21563198954696E+00 -.29140349548586E-01 0.52254369755551E-01 -.20982586472987E-02
  44        7PX      0.39654291688184E-01 -.15118476796770E-01 -.23529871555559E-01 -.73203965652815E-02 -.86230351256314E-01
  45        7PY      0.73868021045599E-01 -.27581851106202E-01 0.16115944002101E-01 -.10538006732277E-01 0.41627145520041E-01
  46        7PZ      0.28284676935497E+00 0.25003351707759E-01 0.59249331902080E-02 -.54762104646062E-01 -.17620834475848E-01
  47        8PX      -.11817987937961E-01 0.91715064437078E-02 -.40218966852373E-01 0.11867378616010E+00 -.68150090240296E+00
  48        8PY      0.42013020044855E-01 0.20877405149836E-01 0.22787020111059E-01 0.37933222554033E+00 0.36590011892565E+00
  49        8PZ      0.78131150042541E-01 0.87318645572240E-03 0.56250113992326E-02 0.11716255480010E+01 -.40768127604313E-01
  50        9PX      -.41959415272225E-03 -.21196372443274E-02 -.18711140635328E-02 -.18152490055807E+00 -.22547625299132E+01
  51        9PY      -.19755598825076E-02 -.44945410812207E-02 0.86785016951093E-03 -.54449065605758E-03 0.14282765305541E+01
  52        9PZ      -.88348588220907E-02 0.16790539589058E-02 -.13681504162892E-02 -.25008283325420E+00 0.48341149176837E+00
  53       10XX      -.54571795315822E-02 -.15304790209792E-02 -.13313630125740E-01 -.74822247268452E-03 0.65721630452746E-04
  54       10YY      -.30513527305841E-02 -.76410697630226E-02 0.10731739543466E-01 -.64893630586782E-03 -.14451022228574E-03
  55       10ZZ      -.10772253133819E-01 0.78860923337457E-02 0.35415672326962E-02 0.45685415507876E-03 0.10834062182056E-03
  56       10XY      0.24403203562314E-02 -.27787158915482E-02 -.71783310580538E-02 0.27187973456937E-04 0.17699624872300E-03
  57       10XZ      -.10938663081268E-03 -.91489987284731E-02 -.44491148095949E-01 -.44352110998532E-04 0.28686757861403E-03
  58       10YZ      -.19458037858947E-02 -.15794698987406E-01 0.26621094640879E-01 0.83593203006448E-04 -.13669186461208E-03
  59       11XX      0.11828824344750E-01 0.37146561345611E-02 -.14898474305152E-02 0.60253417126226E-01 -.21368362802257E-01
  60       11YY      -.11450196464314E-01 -.45455092619455E-03 0.58296122304141E-02 0.55678539916218E-01 0.47365891192109E-02
  61       11ZZ      -.10337490224841E+00 0.24203335398899E-02 0.26421873128931E-02 0.90181355962563E-01 0.31144741352789E-02
  62       11XY      -.24776336273915E-01 -.24915865309796E-02 -.53144003143265E-02 -.93084624763477E-02 -.22098477989600E-02
  63       11XZ      -.16896173480721E-01 -.31245287196428E-02 -.17341916899199E-01 0.40313409359715E-03 -.29052151496873E-01
  64       11YZ      -.22838670297682E-01 -.61720660605482E-02 0.10699867661770E-01 0.18868714335406E-01 0.18699805933406E-01
  65       12XX      -.85006914368095E-03 -.28453346549728E-02 -.92455874287281E-02 0.97303777605353E+00 -.10910746190076E+00
  66       12YY      -.14650910162172E-01 -.40587812925830E-02 0.13921245502709E-01 0.87210642434179E+00 -.81348329566128E-01
  67       12ZZ      -.37265967984266E-01 -.36114098938561E-02 0.63704619964302E-02 0.82874495289704E+00 -.10043924745325E+00
  68       12XY      -.70051317268200E-02 -.15983210016601E-02 -.65294347189673E-02 -.10483999609156E+00 -.75144198013959E-04
  69       12XZ      0.47030955380735E-02 0.20600748459714E-03 -.35879708155170E-01 -.14506308890968E-01 -.33028737454694E-01
  70       12YZ      -.15372396066162E-01 -.34479354690478E-02 0.22524151912424E-01 0.29633863219033E-02 0.12618961212174E-01
  71 3   H  1S       -.13507169995819E+00 -.45838515961597E-02 -.34044313161043E+00 -.55361507073847E-02 -.88350221631367E-02
  72        2S       -.36976010157750E-01 -.12534780924781E-01 -.34384382265597E-01 -.12407469196392E+00 0.22207396797748E+00
  73        3S       -.91610090347286E-01 -.25252484509269E-02 -.86606780172027E-01 -.39092971778905E+01 0.20496574738010E+01
  74        4S       -.38894020525780E-02 -.45183718290100E-03 -.45622726687949E-01 -.10114062768926E+01 0.83668050418028E+01
  75        5PX      0.33905603188289E-03 0.61510114600331E-02 -.27535765863692E-02 -.35167794852977E-02 0.88376919385867E-03
  76        5PY      -.27924734003451E-02 0.11899909153470E-01 -.44453373904547E-03 0.13467833180496E-02 -.25701235912648E-03
  77        5PZ      -.42844874929038E-02 -.48009514091004E-02 -.59659188432964E-02 -.10854897228950E-02 0.59405089429993E-03
  78        6PX      0.85916554390144E-02 0.84953730834195E-02 -.60820140876900E-02 0.17219264006461E-01 -.44638956483119E-01
  79        6PY      0.24391443001440E-02 0.91631464931038E-02 -.38740111160451E-02 -.71528203132249E-02 0.15519214171350E-01
  80        6PZ      0.18586696668954E-01 -.18740005086604E-02 -.22088643022373E-01 0.68183505314979E-02 -.25401945589239E-01
  81        7PX      0.84024127185179E-02 0.18008754706629E-02 -.11088661234102E-01 0.55539732403201E+00 -.14160777533441E+00
  82        7PY      -.21548700116437E-02 0.29971874684410E-02 0.58679252603955E-02 -.11915220733242E+00 -.41164545668824E-01
  83        7PZ      0.48279895725740E-02 -.29815299429202E-02 -.10203038271987E-02 0.40923640958302E+00 -.24896891945457E+00
  84 4   H  1S       -.15897493468086E+00 -.54148625097899E-02 0.33431264662970E+00 -.31840688767913E-02 0.72858500581081E-02
  85        2S       -.35978070229945E-01 -.11050598388956E-01 0.21677772266687E-01 -.16547247389280E+00 -.16236132886331E+00
  86        3S       -.45751145456537E-01 0.76905822413428E-02 0.56749794901217E-01 -.43239650987739E+01 -.10048278770561E+01
  87        4S       -.10105771361150E-02 0.19042575694215E-03 0.44175126459749E-01 -.18390813266158E+01 -.82130999796573E+01
  88        5PX      -.33308142336749E-02 0.66321268938969E-02 -.33320108929209E-02 0.26266193072623E-02 0.25930195163911E-03
  89        5PY      0.44372509623412E-05 0.11070393426536E-01 0.40390499976095E-02 -.24347748404790E-02 -.36808280193144E-03
  90        5PZ      -.22311619362011E-02 -.46384361654833E-02 0.55863944243547E-02 -.20691465426461E-02 -.54974843937374E-03
  91        6PX      -.54600550761447E-03 0.33320799952977E-02 -.42977609398556E-02 -.19242090135176E-01 -.19425465554105E-01
  92        6PY      0.96484782695017E-02 0.11119234000656E-01 0.10867435625221E-01 0.16007317312956E-01 0.20453978573136E-01
  93        6PZ      0.25689251601168E-01 -.48338809390671E-03 0.23671471453067E-01 0.13462313982069E-01 0.26391319531346E-01
  94        7PX      0.40534788814799E-02 0.26352033767418E-02 -.14120387526818E-01 -.32356307210144E+00 0.11183561051085E+00
  95        7PY      0.70737897756884E-03 0.96490502075990E-03 0.10762729731017E-01 0.43458352887192E+00 0.24149696064324E-02
  96        7PZ      0.72628151789149E-02 -.26487118972246E-02 0.80840000963328E-02 0.57699030366295E+00 0.12515625181261E+00
                          11        12        13        14        15
                           V         V         V         V         V
     Eigenvalues --  0.19771604401122E-01 0.25065282357710E-01 0.34024518651989E-01 0.36018478129880E-01 0.37204520880973E-01
   1 1   C  1S       -.10818126615637E-01 -.55133566441551E-04 0.24624396736367E-02 -.53605814151808E-02 -.15634374554477E-02
   2        2S       0.80113752873021E-03 0.10161437503067E-02 -.93897085034836E-02 0.11990094806630E-01 0.56981101659961E-02
   3        3S       -.29769190921117E+00 -.10659620297368E+00 -.13041268397617E+00 0.39900853043221E+00 0.10739015106376E+00
   4        4S       -.68122185734063E-01 0.24845208320364E+00 0.30384166369873E+01 -.46911474604889E+01 -.14273680276095E+01
   5        5S       0.18687113124832E+02 -.15220289762523E+00 -.93771259731495E+01 0.59124986284162E+00 0.47528770331322E+00
   6        6PX      -.94599338117817E-02 -.44024956193453E-01 -.71053961823979E-02 0.16174822300526E-01 -.54410166212978E-01
   7        6PY      0.10912048813197E-02 -.75868433159499E-01 0.82915175815154E-02 -.18675421793410E-01 0.24473425394775E-01
   8        6PZ      -.67162404335086E-02 0.26853337431516E-01 0.64961973294028E-01 -.45376368288913E-01 -.19978184006520E-01
   9        7PX      -.63686205899461E-02 -.17581432658669E-01 -.17983551216425E-01 0.63682701328342E-01 -.51201643022502E-01
  10        7PY      -.22714463867852E-01 -.33635211837945E-01 0.33429015306858E-02 0.37358326208286E-01 0.46060904699578E-01
  11        7PZ      -.83118654898050E-01 -.51589709449903E-01 -.33445933424833E-01 0.22359467002279E+00 0.56803655662027E-01
  12        8PX      -.62640428239648E-02 0.22727009453265E+00 0.48944674460565E-01 -.25097010892416E+00 -.79390179530141E+00
  13        8PY      0.72655518925105E-01 0.39010936293035E+00 0.39652965191978E+00 -.29257381746889E+00 0.29761666485298E+00
  14        8PZ      0.18274404904401E+00 -.65032491396227E-01 0.11607833968184E+01 -.19141665726740E+01 -.64151575523324E+00
  15        9PX      0.20940926213431E+00 -.68070512578041E+00 -.53888500305460E+00 -.22129541529468E+01 0.38548677222351E+01
  16        9PY      0.49106115637500E+00 -.12098965922630E+01 -.98611013081153E+00 -.29328107809175E-01 -.26627866013680E+01
  17        9PZ      0.21033919002661E+01 0.41229174289234E+00 -.39483303824950E+01 -.25596387190259E+01 -.93167973181774E+00
  18       10XX      -.16122698364325E-02 0.12851355215444E-03 -.75530192454047E-03 -.18317593430995E-02 -.23865746979924E-03
  19       10YY      -.16308720686710E-02 -.24495279694380E-03 -.85782428274760E-03 0.32473203665213E-03 0.22506148224252E-03
  20       10ZZ      -.31449710284320E-02 0.10657884928291E-03 0.22075791421748E-02 0.10056563440901E-02 0.12626473396843E-03
  21       10XY      0.60797927389646E-04 0.16652824142773E-04 -.52534163545034E-03 0.22606885182376E-02 0.91490153177144E-03
  22       10XZ      -.14661724141608E-03 -.22032377913161E-03 -.51154043293068E-04 0.19089906431915E-03 0.42873494640854E-03
  23       10YZ      -.47158581316697E-03 -.19302484329507E-03 0.13129763396847E-02 -.33176511411160E-03 -.54847883405495E-03
  24       11XX      -.79917975210083E-01 -.49681430944008E-02 -.27363385091075E-01 0.20577069812066E-01 -.17865095763576E-02
  25       11YY      -.86228041285228E-01 -.87148962004593E-02 -.17636701056945E-01 0.30931913003108E-02 0.14590138856084E-01
  26       11ZZ      -.11459054408634E+00 -.14486687314437E-01 -.33103019465515E-01 0.10548972186497E+00 0.38364522949341E-01
  27       11XY      -.53760873261440E-02 -.41926487166155E-02 0.77869069357009E-02 -.95188970015383E-02 -.11355955410235E-01
  28       11XZ      -.26090534882072E-02 -.92589062042162E-02 -.50314548662579E-02 0.31493825020610E-01 -.36985994552152E-01
  29       11YZ      -.86362392743082E-02 -.18231970950730E-01 0.80039457823858E-03 0.24603308853626E-01 0.35519263672628E-01
  30       12XX      -.56574618961318E+00 0.16460406807574E-01 0.13247328349944E-01 -.18440395758940E+00 0.14842285873046E-01
  31       12YY      -.55933729593868E+00 0.18972826411498E-01 0.75492746433372E-01 -.78521556771382E-01 0.25071895010911E-01
  32       12ZZ      -.54784479243240E+00 -.42560973216352E-01 0.21220503425626E+00 -.64706159660220E+00 -.18099036116203E+00
  33       12XY      0.91586189786684E-03 0.24794901764276E-01 0.39197528046209E-01 0.55080620954298E-01 0.28139068134514E-01
  34       12XZ      -.43938675226689E-02 0.48417668031872E-01 -.52393667095215E-02 -.15055047208306E+00 -.37472010526275E-01
  35       12YZ      0.95535248877096E-02 0.88167752748085E-01 0.59447448392729E-01 -.11555862590454E+00 -.59811550406982E-01
  36 2   C  1S       0.63956871011407E-02 0.19485770984599E-02 0.25052006374715E-01 -.24770033866370E-01 -.86144560561533E-02
  37        2S       -.88128393642936E-02 -.18404606480019E-02 -.36023096942209E-01 0.39386754698217E-01 0.17766598038063E-01
  38        3S       0.77709190296058E-01 0.15520292296647E+00 0.60146933904896E+00 -.60717740670891E+00 -.13316897027630E+00
  39        4S       -.10451443046511E+01 0.28909440730434E+00 0.42019359071320E+01 -.52549295172106E+01 -.16241856925233E+01
  40        5S       -.17247335840716E+02 0.51314076002336E+00 0.17749870544779E+02 -.47640911789601E+01 -.17968014994715E+01
  41        6PX      0.43298823509916E-03 0.30620586241941E-02 -.50244150076811E-02 0.42437315700756E-02 0.49849380337694E-02
  42        6PY      -.11258075486084E-02 0.52272821181930E-02 -.17388649809761E-01 0.22090781225719E-01 0.78787873865271E-02
  43        6PZ      -.93196135731067E-02 -.81446394269906E-02 -.94750222511040E-01 0.75633017412303E-01 0.28459312083045E-01
  44        7PX      -.12928920321236E-01 -.14189312790042E-02 0.36938725240116E-01 0.18173288580906E-01 0.75156457200816E-01
  45        7PY      -.40127109511495E-01 -.72430755040208E-02 0.41465990054548E-01 0.46041496004054E-01 -.26591477657178E-01
  46        7PZ      -.14269617756188E+00 -.43603532610344E-01 0.14791021646578E+00 0.18694795695635E+00 0.49201618934435E-01
  47        8PX      0.45065139657385E-01 0.33412983413670E-01 0.44015723020133E+00 -.14156991064436E+00 0.62745004030472E+00
  48        8PY      -.42588898816644E-01 0.82866336212125E-01 0.53128021412502E+00 -.74841554922756E+00 -.61593776217435E+00
  49        8PZ      0.59990704086171E-01 0.16173101334853E+00 0.23941762905440E+01 -.19349587142088E+01 -.63284475582017E+00
  50        9PX      0.43079833773701E+00 0.13557761280656E+01 0.32627086361781E+00 0.27045567767453E+01 -.40590477395477E+01
  51        9PY      0.82978938404718E+00 0.23954261455068E+01 0.55864731078268E+00 -.18340236139845E+00 0.28374081466208E+01
  52        9PZ      0.34240302106575E+01 -.79116590639876E+00 0.21461814904922E+01 0.27341452719990E+01 0.11252170692769E+01
  53       10XX      -.55615236974034E-04 0.92973656779140E-03 0.20571243820154E-02 -.27874034757688E-02 0.92908013925433E-04
  54       10YY      -.13057567145766E-03 0.25448113432870E-02 0.10394792350685E-02 -.10955159928657E-02 -.10920456015232E-02
  55       10ZZ      0.19483512563592E-02 -.31530889582622E-02 -.42543206616410E-03 -.48780415796754E-03 0.57535357822507E-04
  56       10XY      0.36020236068771E-04 0.15440845856426E-02 -.56878969903985E-03 0.73531144281795E-03 0.14658385197712E-02
  57       10XZ      0.62771877318891E-03 0.30839771061602E-02 0.58133399815311E-03 -.12697688565803E-02 0.42314230695569E-02
  58       10YZ      0.61089639686360E-03 0.55024677258001E-02 -.37773291284678E-03 0.10240094114787E-02 -.23064657004452E-02
  59       11XX      0.44903460907577E-02 0.15854658164840E-01 0.17634736285818E+00 -.13112057500301E+00 -.28139898610739E-01
  60       11YY      0.16112379156531E-01 0.10962500601657E-01 0.14471128379930E+00 -.12496042458140E+00 -.20826066377736E-01
  61       11ZZ      0.44729593627769E-01 0.54060607370365E-01 0.16716904080302E+00 -.16685454267854E+00 -.36164848111623E-01
  62       11XY      0.16362848189980E-01 -.70236336414673E-02 -.42316513435679E-01 0.24210955047918E-01 -.86781860930886E-02
  63       11XZ      0.92624056935477E-02 -.43333877240343E-02 -.58603527882606E-02 0.21574267446927E-01 -.37265540843718E-01
  64       11YZ      -.60507767618251E-03 -.71576117352837E-02 0.35608145208226E-01 -.35234615500965E-01 0.16740055174884E-01
  65       12XX      0.12660558649874E+00 0.16601188298883E+00 0.15335078644463E+01 -.23210943862901E+01 -.81826031250890E+00
  66       12YY      0.17036784284813E+00 0.24459988220633E+00 0.13550472283031E+01 -.21706232218611E+01 -.60325700068797E+00
  67       12ZZ      0.12700578279548E+00 -.36704816711233E-01 0.15462994613872E+01 -.18782529270669E+01 -.61823953612475E+00
  68       12XY      0.44995140825809E-01 0.59223096287863E-01 -.20585960512150E+00 0.21854305141540E+00 -.26404705345266E-01
  69       12XZ      -.76809329277582E-02 0.12253841474747E+00 0.12244909942211E-01 0.17382339000551E+00 -.35992624916186E+00
  70       12YZ      -.17092027683357E-01 0.21418180467986E+00 0.15676656945065E+00 0.46861095369421E-01 0.24619891195543E+00
  71 3   H  1S       0.61266293926506E-02 0.42930017725036E-02 0.17178687740343E-01 -.30020894569096E-01 0.18343196266953E-01
  72        2S       0.11882244077551E+00 -.34128104085730E-01 -.41046804068257E+00 0.11259472554973E-01 -.24205220219561E-01
  73        3S       0.87321747739283E+00 -.48796695788015E+00 -.69457257599790E+01 0.87392786319758E+01 0.13901898180601E+01
  74        4S       -.51880580256280E+00 -.84321441174619E-01 -.17505900766992E+01 -.54814951886642E+00 0.11683094340701E+01
  75        5PX      0.15553239567219E-03 0.14411642733560E-02 0.57700358177559E-02 -.59072320674192E-02 -.18720260989791E-02
  76        5PY      0.25736164143211E-03 0.22388102217583E-02 -.13511631632933E-02 0.25164043286286E-02 0.51280673675827E-03
  77        5PZ      0.78239145394858E-03 -.51943714971392E-03 0.36392973288484E-02 -.12227393714315E-02 -.11042135064433E-02
  78        6PX      -.20502690524433E-01 0.16214280501299E-01 0.12435158589851E+00 -.90295687389398E-02 -.24903103695901E-02
  79        6PY      0.80872987805273E-02 0.21810956997722E-03 -.46742753652730E-01 -.86103064235235E-02 0.13349302802847E-01
  80        6PZ      -.45625736189496E-02 0.11827745016716E-02 0.49345702191958E-01 -.38576293881736E-01 0.38532876266527E-01
  81        7PX      -.97030053374286E-01 -.20732921821163E+00 0.10218071004959E+01 -.16668523550365E+01 0.12218655375878E+00
  82        7PY      0.15224564499049E-01 -.47497523157957E+00 -.38390525517379E+00 0.18570662337120E+00 -.96386290330845E-01
  83        7PZ      -.96827531336814E-01 0.19894224385546E+00 0.17765238355577E+00 -.18210800601006E+01 0.14880599557579E+00
  84 4   H  1S       0.51709803831794E-02 0.42863928923638E-02 0.13809446086085E-01 -.65364429112028E-02 -.30349524632575E-01
  85        2S       0.16526509588085E+00 -.35865642340813E-01 -.47260996934102E+00 0.13222982035511E+00 -.25422114833508E-01
  86        3S       0.10038732821584E+01 -.55394743110980E+00 -.74403519454429E+01 0.91457856950792E+01 0.41359763988148E+01
  87        4S       -.97174254143738E+00 -.72123460331222E-01 -.20036502073106E+01 0.20196775948737E+01 -.70558070529639E+00
  88        5PX      0.32268522209566E-03 0.13822500514964E-02 -.37080797289813E-02 0.55458044166035E-02 0.25657246689086E-02
  89        5PY      0.22648952739130E-03 0.29433556206945E-02 0.46590210566276E-02 -.46282652921963E-02 -.17371544524760E-02
  90        5PZ      0.10096215549476E-02 -.71903763188276E-03 0.55317142224408E-02 -.30605478585262E-02 -.57543788537566E-03
  91        6PX      0.23320452720110E-01 -.83176627512007E-02 -.10676669713100E+00 0.18415673280390E-01 -.14392355880833E-02
  92        6PY      -.20698805065470E-01 0.11912305601689E-01 0.92005702145650E-01 -.26477681548918E-01 -.85302208080234E-02
  93        6PZ      -.16981800968852E-01 0.39328249223644E-02 0.74987663645608E-01 -.35699657864901E-01 -.37815293226766E-01
  94        7PX      0.23935853905339E-01 -.31601041224884E+00 -.73087441583423E+00 0.56557044964350E+00 0.72042992527980E+00
  95        7PY      -.75042180936168E-01 -.44185060976032E+00 0.69732686086702E+00 -.10915447091015E+01 -.86046577533353E+00
  96        7PZ      -.16750755598890E+00 0.23151671539481E+00 0.46555015163534E+00 -.17933165936815E+01 -.12837521591234E+01
                          16        17        18        19        20
                           V         V         V         V         V
     Eigenvalues --  0.38133238533387E-01 0.42366473321340E-01 0.55869626823541E-01 0.62252220494050E-01 0.72312744940454E-01
   1 1   C  1S       0.25253505143494E-03 -.18617996237674E-02 0.26058072368007E-02 0.16928473945966E-01 -.22851028560941E-02
   2        2S       0.17378653140390E-03 0.29025360878855E-02 -.11075952632188E-01 -.97178186767342E-01 -.33272743089229E-02
   3        3S       0.41998137750953E-01 -.64926565546605E-01 -.16998767410651E+00 -.88536366862868E+00 -.35694055156446E+00
   4        4S       0.11951984482440E+00 -.75992449607424E+00 0.10106079487051E+00 0.36405867037151E+00 -.71257389458194E+00
   5        5S       0.11117025480106E+00 0.24390335370307E+01 0.99542133014385E+00 0.30377871647015E+02 -.78809829229352E+01
   6        6PX      0.66304264736526E-01 0.50017489987035E-02 0.29870950029448E+00 -.18047196289024E-02 -.10177744475798E-01
   7        6PY      0.11664780009316E+00 -.49153693559348E-02 0.51982124588360E+00 -.40990513295269E-01 -.24621299990852E-01
   8        6PZ      -.41730777931555E-01 -.63772450440085E-02 -.17124821241412E+00 0.35064888664368E-01 -.17597182393727E-01
   9        7PX      0.10827796218025E-01 -.25649560980475E-01 0.24785935291611E-01 -.20064180359979E-01 -.79638455964868E-01
  10        7PY      0.18383711634274E-01 0.64055494831420E-02 0.44157030466606E-01 -.59286873585392E-01 -.28461176658425E-01
  11        7PZ      0.15903192765074E-01 -.32736278970949E-01 -.84817303076844E-01 -.20423073239660E+00 -.19296974304372E+00
  12        8PX      0.20474663589639E+00 0.18381676484326E+00 0.13107235521474E+00 0.12280126369869E-01 -.15163636276796E+01
  13        8PY      0.39776085892678E+00 -.17685535543461E+00 0.26088747779213E+00 0.68738338505540E-01 -.25368073216407E+00
  14        8PZ      -.90962500446851E-01 -.32858711810574E+00 -.64962425078602E-01 0.35208525972780E+00 -.26169280815037E+01
  15        9PX      0.17555984764305E+01 0.98394379796567E+00 -.88002160500532E+00 0.39282953497964E+00 0.81012894776389E-01
  16        9PY      0.30859410815781E+01 -.58511171372941E+00 -.16097013428446E+01 0.66959875354169E+00 -.71269722722464E-01
  17        9PZ      -.12086240184423E+01 -.10309517373734E+00 0.59100674340139E+00 0.26263636482271E+01 -.30653135230653E+00
  18       10XX      -.15068893520260E-03 0.36077623943291E-03 -.14564599255236E-02 -.18829431516334E-02 -.13059194261311E-02
  19       10YY      -.48898980631528E-03 -.80386367769516E-03 -.36953592831057E-02 -.10857206369496E-02 0.97499786537069E-03
  20       10ZZ      0.90242053918432E-03 -.22477096523192E-03 0.53880596079215E-02 0.73369538477334E-03 -.17817111783929E-02
  21       10XY      -.17316353823507E-03 0.75150380978050E-03 -.23534538550865E-02 0.82355960495331E-03 0.18323750621172E-02
  22       10XZ      -.58726646715848E-03 0.35975998297949E-02 -.54427075431379E-02 0.83736639331463E-03 -.94522369525196E-03
  23       10YZ      -.97316497495892E-03 -.20145372170528E-02 -.96119869729730E-02 0.12919292181992E-02 -.59798721067248E-03
  24       11XX      0.13600590992616E-03 -.23711414167200E-02 -.18430562382081E-01 -.17426701791215E+00 -.88358466542195E-01
  25       11YY      -.98186919479139E-02 -.92948809902993E-02 -.16554224438456E-01 -.18059062573212E+00 -.54999518731933E-01
  26       11ZZ      0.31121327166023E-01 -.15483836017352E-01 -.41427742349714E-01 -.24530169086558E+00 -.12873855633140E+00
  27       11XY      -.97109288017047E-02 -.19732639887542E-02 0.21733100144857E-02 -.49141041422715E-02 0.21329543063581E-01
  28       11XZ      -.18430437777006E-01 -.34957669240318E-02 -.69785700931041E-03 -.81802621317167E-02 -.33966184603143E-01
  29       11YZ      -.32556461242435E-01 -.75485217599884E-03 -.50837880735867E-03 -.20639368039581E-01 -.18974267513915E-01
  30       12XX      0.29177335110421E-01 -.92763411351436E-01 -.93479299408117E-01 -.12830360432156E+01 -.54910710590297E+00
  31       12YY      0.11085146608241E+00 -.83687336213054E-01 -.14168341939083E+00 -.12878409649589E+01 -.20622351927424E+00
  32       12ZZ      -.11793020573491E+00 -.16969233776785E+00 -.37086484973112E-01 -.13782782337486E+01 -.10714520653820E+01
  33       12XY      0.49984771237734E-01 0.25226621670180E-01 -.90221559071353E-02 -.87636610961182E-02 0.19612055007555E+00
  34       12XZ      0.11241183617391E+00 0.11922200512869E-01 -.57806947301770E-01 -.12502103856786E-01 -.36758244500361E+00
  35       12YZ      0.19692252666701E+00 -.36980394704964E-01 -.86481923585264E-01 -.16805836774139E-01 -.20812020569255E+00
  36 2   C  1S       -.29121198839946E-02 -.18365110483926E-02 -.83112568487288E-02 -.14535644830280E-01 -.18412776837140E-01
  37        2S       0.86691042102792E-02 0.82129753308817E-03 0.18715566735213E-01 0.47372497220343E-01 0.40768519552524E-01
  38        3S       -.30051475876187E-01 -.44266679533525E-01 0.23335220978764E+00 0.45042152643475E+00 0.87151358358769E+00
  39        4S       0.12899665093614E+00 -.96274244177803E+00 0.93623168862168E-01 -.11094338018147E+01 -.46361505886110E+00
  40        5S       0.20369713107734E-01 -.31609343921354E+01 -.18665890924695E+00 -.26496401637627E+02 0.11406396986524E+02
  41        6PX      -.69626587151809E-01 0.96836804091159E-01 -.21660509428466E+00 0.14352146700082E-01 0.26735620098046E-01
  42        6PY      -.12087826460154E+00 -.52759228774356E-01 -.38197974272984E+00 0.41202775986986E-01 0.20189553367884E-01
  43        6PZ      0.49970111871651E-01 0.64908562115881E-02 0.15090003160201E+00 0.28940540730102E-01 0.57329419721911E-01
  44        7PX      0.90869816274556E-02 -.21068439192004E+00 -.65284962755612E-01 -.29183444236031E-01 0.30330551391169E-01
  45        7PY      0.11723614573370E-01 0.10486860984644E+00 -.12230766612975E+00 -.66961324156989E-01 0.21356183925510E-01
  46        7PZ      0.56144541350074E-02 -.35480200609156E-01 -.76184440526825E-02 -.29234602206975E+00 0.70639736261889E-02
  47        8PX      -.27170249556372E+00 -.16617244859376E+01 0.12189483601426E+00 0.11283629218097E+00 0.92057969694336E+00
  48        8PY      -.56201757155616E+00 0.82824010754132E+00 0.21793561641894E+00 0.18637010896151E+00 0.24261434957301E-01
  49        8PZ      0.27500080541149E+00 -.18569943313039E+00 0.11426465814107E+00 0.93092161653683E+00 0.12579420879109E+01
  50        9PX      -.14734780816336E+01 -.48703303623021E+01 0.10312021770850E+01 0.25777131375047E+00 -.11205069155485E+00
  51        9PY      -.27099253028697E+01 0.30774461033190E+01 0.19657200380479E+01 0.10897605468444E+01 -.36248425060930E+00
  52        9PZ      0.11266564209060E+01 0.10688072271558E+01 -.38137621709365E+00 0.43499070507519E+01 -.10807149310016E+01
  53       10XX      -.78605017577715E-03 0.63982538298322E-04 -.42705014201089E-02 0.26413079203544E-02 -.48633214160313E-02
  54       10YY      -.22836730580509E-02 -.57824454199979E-03 -.10424030062141E-01 0.36715343838266E-02 0.33456883350580E-03
  55       10ZZ      0.30899312279828E-02 0.22481507807776E-03 0.13417782739793E-01 -.77142022257559E-02 0.33512386454342E-02
  56       10XY      -.12608717828240E-02 -.14339182066386E-03 -.63784469117836E-02 0.69099954440657E-03 0.66371932012225E-02
  57       10XZ      -.27226620569835E-02 -.20005251122635E-03 -.13997384555440E-01 -.10285133703262E-02 0.31811130858388E-02
  58       10YZ      -.47759211265331E-02 0.46409292469876E-03 -.25403872650344E-01 -.74898703322158E-03 0.12725831164228E-03
  59       11XX      -.45146672540693E-02 -.62320031662582E-01 0.12757960641328E-01 0.33446670142814E-01 0.13141594445485E+00
  60       11YY      -.10716460471037E-01 0.54138439857291E-02 -.11599943839842E-02 0.57202023181093E-01 0.82875044910740E-01
  61       11ZZ      0.89465189004499E-02 0.85486496250157E-02 0.60434145002979E-01 0.10359000180934E+00 0.54918459517708E-01
  62       11XY      -.39089068764666E-02 -.48678383818254E-02 -.11769209509945E-01 0.27717333238497E-01 -.93104467811286E-01
  63       11XZ      -.15230389176179E-01 -.77425878597815E-01 -.16278102646827E-01 0.11836337767189E-01 -.71484052490777E-01
  64       11YZ      -.32810061059749E-01 0.52805883169152E-01 -.19751749746849E-01 0.44178327094766E-02 0.40483048638971E-01
  65       12XX      0.11338311615127E+00 -.40986845877681E+00 0.98915105362654E-02 0.59749650273691E+00 -.11999787133642E+00
  66       12YY      0.94115071169626E-01 -.26903127722211E+00 0.45348657284299E-01 0.60328508723547E+00 -.97400658484267E+00
  67       12ZZ      0.15224105277068E-01 -.28711271410931E+00 0.18981919536717E-01 0.32440286058476E+00 -.21218758631623E+01
  68       12XY      0.38705059125659E-01 0.16517649111103E-01 -.44830815393258E-01 0.15176115754869E-01 -.97451389708868E+00
  69       12XZ      0.40338556748958E-01 -.88663533766013E-01 -.15547616989334E-01 -.38336181564589E-01 -.55700601375986E+00
  70       12YZ      0.95522336872973E-01 0.66745738802777E-01 -.31969743617508E-01 -.85901063269289E-01 -.39802126126583E-01
  71 3   H  1S       -.96881988527374E-02 0.26280823487758E-01 -.33793791851836E-01 -.25805960864405E-01 -.54510299168744E-01
  72        2S       0.16459475007019E-01 0.52987978750764E+00 -.72262131326288E-01 0.13228349213845E+00 -.65374923733394E+00
  73        3S       -.29260131491107E+00 0.63141767546255E+01 -.21579757985074E+00 0.49114069594937E+00 0.21311323302471E+01
  74        4S       -.16070248915289E+00 0.10356603830625E+02 -.65441720378965E-01 -.42824738339578E+00 -.42795187091550E+00
  75        5PX      -.27216271808289E-02 -.66164342778507E-02 -.93134053600395E-02 -.34833409436609E-02 -.34139696951389E-02
  76        5PY      -.40732703942683E-02 0.20066993038612E-02 -.15316477463181E-01 0.18161951454354E-02 0.19639070963070E-02
  77        5PZ      0.14104608452141E-02 -.34525782046912E-02 0.48399575949963E-02 -.50599713519367E-02 -.39486221464640E-03
  78        6PX      -.13817451674662E-01 -.13401904386500E+00 -.60047790984099E-02 -.36941057918722E-01 0.38734000030613E-01
  79        6PY      -.10718258723209E-01 0.46300614265370E-01 -.40542065960162E-01 0.13197244900713E-01 0.52474129777143E-01
  80        6PZ      0.48378830883304E-03 -.76271995828940E-01 0.17442479145856E-01 -.28878169142592E-01 0.16394365068020E+00
  81        7PX      0.29546489335411E-01 -.66532501475832E+00 -.22057875250236E+00 -.15345660838534E+00 -.28605214683308E+01
  82        7PY      -.35682310974919E-01 0.28031064869260E-01 -.31663027830842E+00 0.22774426013348E-01 0.13166137943102E+01
  83        7PZ      0.26956669374966E-01 -.83851564521489E+00 0.49425728679532E-01 -.30736709865721E+00 -.73403888888824E+00
  84 4   H  1S       -.96356219768729E-02 -.18683926890134E-01 -.36259975571013E-01 -.29400976186591E-01 -.62115142227617E-01
  85        2S       0.31281511084360E-01 -.40138166318093E+00 -.84967492808632E-01 0.17712006496986E+00 -.82811142215369E+00
  86        3S       -.15920365653805E+00 -.30900556322103E+01 -.31944747975073E+00 0.39562639602212E+00 -.96982757491239E+00
  87        4S       0.99036268488929E-01 -.10165770004630E+02 -.24647431077088E+00 -.14621885913517E+01 -.18233360014227E+00
  88        5PX      -.20945196838027E-02 -.31874866972171E-02 -.84055367003868E-02 0.29052531316594E-02 0.21909231479526E-02
  89        5PY      -.49642439820672E-02 0.35447762871052E-02 -.16454048766911E-01 -.21970477408285E-02 -.16414536168611E-02
  90        5PZ      0.13914174372470E-02 0.40723503721676E-02 0.45115621232837E-02 -.63703405249709E-02 -.16663736827575E-02
  91        6PX      0.14545183936264E-02 -.73906216054814E-01 -.36262275890281E-01 0.32648913476052E-01 0.15860721113730E-01
  92        6PY      -.16658901884036E-01 0.67511445098385E-01 -.33458673164456E-01 -.31323095664340E-01 0.84393823729205E-01
  93        6PZ      -.43844027262217E-02 0.74550604425188E-01 0.21997739443446E-01 -.46959784864877E-01 0.17921184815646E+00
  94        7PX      0.25751753850985E-01 0.20812883051276E-02 -.24373939222523E+00 0.66316404931782E-01 0.19860464818093E+01
  95        7PY      0.96771033073058E-01 0.15176444245278E+00 -.50948912915844E+00 -.88990811077483E-01 -.10681810232340E+01
  96        7PZ      -.28249921754618E-01 0.42670734383968E+00 0.11724766975211E+00 -.31277856682003E+00 -.49491942728947E+00
                          21        22        23        24        25
                           V         V         V         V         V
     Eigenvalues --  0.76232267797476E-01 0.88367212381112E-01 0.90673107019580E-01 0.92134574909857E-01 0.94384641893485E-01
   1 1   C  1S       0.11530851306025E-03 0.47804849647605E-02 -.15529391102225E-03 0.83372869825949E-02 0.53674735221445E-02
   2        2S       -.27508436413606E-03 -.22460947595785E-01 -.91118332482912E-03 -.29625984182886E-01 -.17123875162882E-01
   3        3S       -.75275078598681E-02 0.51387078622332E+00 -.27143380522041E+00 -.52040798561289E+00 -.29163801693151E+00
   4        4S       -.26979332042944E+00 -.12706243749263E+02 -.60910823051035E+00 -.65871316231160E+01 -.29760136709205E+01
   5        5S       0.16444012647161E+00 0.13050907627638E+02 -.78447914519774E+00 -.12599037968482E+02 -.12873598115420E+02
   6        6PX      0.17495193578984E-02 -.31276106703328E-02 -.58846212523128E-01 0.75697163129189E-01 -.86264438237399E-01
   7        6PY      0.25087441643855E-01 0.47065459354191E-01 -.10824126817078E+00 -.59214388147568E-01 0.29819164764135E-01
   8        6PZ      -.50469046486510E-02 0.92476459336390E-01 0.38158012692495E-01 -.19072422879472E-01 -.27203198631788E-01
   9        7PX      -.17161724368217E-01 0.49197734959649E-01 -.75610144143402E-01 -.82197984704716E-01 0.31174717094907E-01
  10        7PY      0.23863923778151E-02 0.86113294730733E-01 -.12784276625631E+00 0.85589468925088E-02 -.35728017210424E-01
  11        7PZ      0.14644477610600E-02 0.37581787347218E+00 -.98390661442888E-01 -.18067554901190E+00 -.10635378261598E+00
  12        8PX      -.11333507090230E+01 -.11023928398297E+01 0.28509081525487E+00 -.28634085429796E+01 0.14797375167001E+00
  13        8PY      -.93889496633160E-01 -.10770372102004E+01 0.85068201164176E+00 0.12730461889223E+01 0.27586597733913E-01
  14        8PZ      0.41009151351102E+00 -.55017859944667E+01 -.73257445771229E+00 -.17016470697525E+01 -.35401878806029E+00
  15        9PX      -.16124333482039E+00 -.10320522652086E+00 -.43554567310380E+00 0.14982629360551E+01 -.32513684841238E+01
  16        9PY      0.28457875101141E+00 0.33555539941603E+00 -.87806334659582E+00 -.20716798893057E+01 0.85433979734987E+00
  17        9PZ      -.42514947454733E-01 0.15092493392929E+01 0.11811655505893E+00 -.35123190589079E+01 -.27546086376643E+01
  18       10XX      0.39468863018355E-03 0.35275082557832E-02 0.17598095762868E-02 0.66312455257005E-03 0.16593294836156E-02
  19       10YY      -.40268432164830E-03 0.28814647101437E-02 0.62415043826380E-02 0.44935592860440E-02 0.20824409759173E-03
  20       10ZZ      0.19858056862061E-04 -.61979232198021E-02 -.82938583145069E-02 -.17514416998281E-02 0.10775179259771E-02
  21       10XY      0.57959849898435E-04 0.20018933350385E-03 0.39383010496920E-02 0.12114840082828E-02 0.17566173268967E-02
  22       10XZ      0.48654512331032E-03 -.11415507150527E-02 0.72262586837342E-02 -.54511129716370E-02 0.47718864489399E-02
  23       10YZ      -.63302755377929E-03 -.45761892351674E-02 0.13131535442364E-01 -.19705510998030E-03 -.31785074142483E-02
  24       11XX      -.17522716314823E-01 -.15063018001919E-01 -.27729270301835E-01 -.54560796598684E-01 -.15984253754181E-01
  25       11YY      0.19932295118359E-01 -.21933068401220E-01 -.37764922202853E-01 -.58580490053428E-01 -.21972346459532E-01
  26       11ZZ      0.22941330829790E-02 0.13935117118383E+00 -.33918262465992E-01 -.11347970658080E+00 -.83347595631111E-01
  27       11XY      -.14128111068504E-01 -.10415451707631E-01 -.10714726588326E-01 -.12956741319738E-01 -.97526663899201E-02
  28       11XZ      -.15269852177899E-02 0.17862078399678E-01 -.23310608940044E-01 -.18734725583950E-01 -.15771438559308E-01
  29       11YZ      0.43297621897629E-02 0.46103343482353E-01 -.40179836291923E-01 -.15178656140134E-02 -.80115483062834E-02
  30       12XX      -.25337331960994E+00 -.73458323034250E+00 -.26421875666768E-01 -.63897326345175E+00 -.41503304544628E+00
  31       12YY      0.18189064215969E+00 -.66188672998742E+00 0.28281996359817E-01 -.19529494531558E+00 -.32406703041721E+00
  32       12ZZ      0.16214994388708E+00 -.20635732443032E+01 -.33373095321348E+00 -.48515712920397E+00 -.14192737762558E+00
  33       12XY      -.22737706548089E+00 0.47068746786120E-01 0.89411692373383E-01 0.62800875829613E-01 0.13232515182296E+00
  34       12XZ      -.15515036251417E+00 -.28744250788558E+00 0.84506533541713E-01 -.64053454294889E+00 0.11077113561248E+00
[...]
  13        8PY      0.89236764160368E+00 -.12350068966122E+00 0.37006581085324E+00 -.54598682614187E+00 -.52322737812604E+00
  14        8PZ      0.16409482683595E+01 -.15667247196022E+00 -.34398376781529E+00 -.20763009467436E+01 -.25597020569490E+01
  15        9PX      -.55760811769839E-01 -.33180856006776E-01 -.20784760044402E-01 0.87471047470284E-01 -.13310028839335E+00
  16        9PY      -.10463994039037E+00 0.96540200953236E-03 0.25802330327899E-01 0.17460253620869E+00 -.17312521912176E-01
  17        9PZ      -.51460838383682E+00 -.22740926641487E-01 0.63759874874092E-01 0.86586812441214E+00 0.71507271388882E-01
  18       10XX      -.42722314298640E+00 -.35578400016955E-01 0.53682629038170E-01 -.23916963298272E+01 -.52508418781512E+00
  19       10YY      -.21404837767417E+00 -.36638298288831E-01 0.25720309697746E+00 -.24046260075832E+01 -.50461596561880E+00
  20       10ZZ      -.54033466985652E+00 0.28525888170015E-01 -.18111965595302E+00 -.25632688432367E+01 -.61706569318315E-01
  21       10XY      0.73616075392603E-01 0.16858800255832E+00 -.16520286665890E-01 -.55437538758183E-02 0.24961917730474E-01
  22       10XZ      -.27687806010884E+00 0.35618382135527E+00 -.44972102246516E+00 -.16370913177109E-01 0.78826626104973E-01
  23       10YZ      0.17685667760880E-01 -.18578005592183E+00 0.15898356384667E+00 -.52040277860567E-01 0.12604825320143E+00
  24       11XX      0.10074770699983E+01 0.61222263892557E+00 0.44546996435157E+00 -.51423656773513E+01 -.19631522714074E+00
  25       11YY      0.97882053853093E+00 0.61203528344694E+00 0.17960733719510E+00 -.51036877396086E+01 -.32821684393149E+00
  26       11ZZ      -.24406279166926E+00 0.87511488724263E+00 0.42202507239242E-01 -.42247444678285E+01 0.14620862419070E+00
  27       11XY      -.42033338434032E-01 -.20303068862259E+00 -.21290686553638E-01 0.47670816527124E-01 -.11694578893453E+00
  28       11XZ      -.22627066909958E+00 -.28025516787403E+00 0.32446605337106E+00 0.13901309376918E+00 0.10097046451631E+00
  29       11YZ      -.33107218766033E+00 0.26401346958802E+00 -.31235884041972E+00 0.23619055941863E+00 0.10533509253339E+00
  30       12XX      0.12893713444625E+01 0.26414454840054E+00 0.10174036325965E+00 -.36775163401215E+01 0.17906091261976E+00
  31       12YY      0.14228166671789E+01 0.36416488558119E+00 0.21129745322720E+00 -.35832358816532E+01 0.16784342590066E+00
  32       12ZZ      0.16918965818744E+01 0.53137948763407E+00 0.25051696366221E+00 -.39988083283486E+01 -.14581493037599E+00
  33       12XY      0.52345795590435E-01 0.10302029180555E+00 0.23671685533348E-01 0.10163875011083E+00 0.10753129316492E-01
  34       12XZ      -.36323936621916E-01 0.11693160985729E+00 -.17300715366713E+00 -.64547345820420E-01 0.23640853548046E-01
  35       12YZ      0.20916011234257E+00 0.17777387013425E-01 0.15062656466715E+00 -.15631622208346E+00 -.53026180489073E-01
  36 2   C  1S       -.97069671525739E-02 -.71202945714307E-01 -.72218197416178E-01 0.23311539545675E+00 -.13723779755992E+01
  37        2S       0.65825099253072E+00 -.16543887706010E+01 -.16370189782499E+01 0.81467084435938E+00 -.47855107639621E+01
  38        3S       0.10369827132374E+02 -.84548052566093E+01 -.56280418427614E+01 -.58712051739545E+01 -.41954501402174E+01
  39        4S       0.27055241287537E+01 -.39285818564543E+01 -.34062850045589E+01 0.48877904624426E+00 -.96176133568190E+01
  40        5S       0.65446544666730E+01 -.69622686187395E+00 -.13171376006205E+01 -.10824842618003E+02 -.48812107591883E+01
  41        6PX      0.89884424826379E-01 0.61710122910813E+00 -.33782241214886E+00 -.38344657065605E-01 0.19351519953960E-01
  42        6PY      -.30250174232085E-02 -.17051908848422E+00 0.27878709402947E+00 -.84853439453001E-01 0.71445247948495E-01
  43        6PZ      0.55669355948722E-01 0.36033050531387E+00 0.11620791692643E+00 -.31191706874995E+00 0.23782857457726E+00
  44        7PX      0.18099834962746E+00 0.16582977021417E+01 -.20424664153635E+01 0.88649427788501E-01 -.25208701041902E+00
  45        7PY      -.62027459115635E+00 -.85320898377242E+00 0.53971638369368E+00 0.10256673767113E+01 0.17273415667568E+00
  46        7PZ      -.22551177192712E+01 0.75151254830896E+00 -.13847448187106E+01 0.33881427500508E+01 0.90296921507496E+00
  47        8PX      0.80027325806439E+00 -.38281746937808E+00 -.52380172662377E+00 -.39347851862528E+00 -.19216808407801E+01
  48        8PY      0.24668296230244E+00 -.11804597958167E+01 -.94546898546782E+00 -.32918302868306E+00 -.25807889904597E+01
  49        8PZ      0.27644854021042E+01 -.33560169105778E+01 -.29329630576993E+01 -.17972712697069E+01 -.90037196729345E+01
  50        9PX      -.32246639103457E-01 0.78548927555045E-02 -.99342800832001E-02 0.12391675849469E+00 0.12304425052643E+00
  51        9PY      -.14745112670475E+00 -.54034256972017E-01 -.31919856405530E-01 0.42408057938024E+00 0.28098417699497E-01
  52        9PZ      -.50767331709602E+00 -.14588794375964E+00 -.91443005523348E-01 0.14622637447016E+01 0.23036361419553E-01
  53       10XX      0.50092191491627E+00 0.10496304951134E+01 0.85177540687518E-01 0.28287882567824E+00 -.24892474923539E+01
  54       10YY      0.31758517455171E-01 -.80601965374886E-01 0.36392242591772E+00 0.40675735885002E+00 -.25003476525379E+01
  55       10ZZ      -.70258972668342E+00 0.60070387309613E+00 0.11635751811129E+01 0.88317428920242E+00 -.24620669481251E+01
  56       10XY      -.59090398584932E+00 -.36505093696941E+00 -.51181270905448E+00 0.10675201902326E+00 -.29194171756329E-01
  57       10XZ      -.31421353441332E+00 0.10941175283749E+01 -.84538159214489E+00 0.51222416937607E-01 -.12054648012028E-01
  58       10YZ      0.31629259575889E-01 -.26555018942543E+00 0.10498542587064E+01 0.13198807396379E+00 0.41033825767514E-01
  59       11XX      0.92391941445728E+00 -.30281220928960E+01 -.28995205239712E+01 0.14871951797659E+01 -.81754249231854E+01
  60       11YY      0.94483887640977E+00 -.25207904638788E+01 -.23572353507856E+01 0.12329645390134E+01 -.76190266768408E+01
  61       11ZZ      0.28075205736658E+01 -.39794362621687E+01 -.34301953276438E+01 -.33283384020830E+00 -.93417640256372E+01
  62       11XY      -.14019176397210E+00 0.60445730039960E+00 0.62706059279521E+00 -.28401321685927E+00 0.72503351449266E+00
  63       11XZ      0.38331520939943E-01 -.30334994869894E+00 0.54154872976723E-01 -.24989582866718E+00 -.66139442857395E-01
  64       11YZ      0.78874151735912E+00 -.63805693668825E+00 -.70800015245708E+00 -.41984590798463E+00 -.91507946141612E+00
  65       12XX      0.15328111902117E+01 -.33072994157898E+01 -.30366775421015E+01 0.63499236305377E+00 -.11715322325755E+02
  66       12YY      0.13620368720455E+01 -.33517522474738E+01 -.25655589228189E+01 0.56235677826332E+00 -.10667555605084E+02
  67       12ZZ      0.15109409452701E+01 -.28585306413696E+01 -.24304317710053E+01 0.10348408187533E+01 -.99009575751679E+01
  68       12XY      -.25995403777228E+00 0.29247267269863E+00 0.14254823768439E+00 -.73987306077939E-01 0.11752144903062E+01
  69       12XZ      -.47644415906382E-01 0.43965081090006E+00 -.31275292175328E+00 0.85399703837900E-01 0.35805238834501E+00
  70       12YZ      0.31371480428123E+00 -.12274629923978E+00 0.24878211502751E+00 0.14469945637818E+00 -.77653547744006E-01
  71 3   H  1S       -.58354526398353E+00 -.20479971775616E+01 0.53819656570927E+00 0.22485131714601E+00 -.12870437965148E+00
  72        2S       -.25056044955453E+01 0.33653014862169E+01 0.57863644883440E+01 -.50008953968034E+00 0.62737031934338E+01
  73        3S       -.62951783270663E+01 0.62015023796029E+01 0.82801800185398E+01 0.38890894801232E+01 0.25603845396531E+02
  74        4S       -.77579216053739E-01 0.15840044616772E+00 0.15867251854922E+00 -.14181235311701E+00 0.38278541900727E+00
  75        5PX      0.24727104586760E+00 0.12242540507004E+01 -.11953871268180E+00 -.24344949123451E-01 -.81313649770465E-01
  76        5PY      0.10333863103457E+00 -.43363604929869E+00 0.46026519430359E-01 -.16102143137134E-01 0.25308088436279E-01
  77        5PZ      0.68599276080831E+00 0.52450130870958E+00 -.34894322942268E-01 -.85345465680384E-01 -.58004795502274E-01
  78        6PX      0.74153970495900E+00 -.86726461810370E+00 -.15289801061035E+01 -.78167114751119E-01 -.14139198449409E+01
  79        6PY      -.41628773583128E+00 0.30400125615074E+00 0.48597222534459E+00 0.10958199534747E+00 0.43387654305785E+00
  80        6PZ      -.76327239513813E-01 -.28918556807993E+00 -.90704958366713E+00 0.13566892144741E+00 -.82767569154668E+00
  81        7PX      0.83186347418084E+00 -.82066792021801E+00 -.11172144787398E+01 -.64307792566586E+00 -.32992131433415E+01
  82        7PY      -.23030811741213E+00 0.71895071481641E-01 0.41867781911484E+00 0.66786677632985E-01 0.64653041181118E+00
  83        7PZ      0.54641740344024E+00 -.89802647234835E+00 -.50949275328822E+00 -.75224370884429E+00 -.26977870396076E+01
  84 4   H  1S       -.76089690320433E+00 0.37176714135223E+00 -.18004371134162E+01 0.70160734366535E-01 -.13171450815110E+00
  85        2S       -.26196028797975E+01 0.57758158068454E+01 0.44992653824496E+01 -.10492369341875E+01 0.68392067906463E+01
  86        3S       -.62974286589931E+01 0.94345884253610E+01 0.53650184539087E+01 0.31720429635013E+01 0.26714190298825E+02
  87        4S       0.34920905247111E-01 0.16475607756617E+00 0.10979804505132E+00 -.44532071759942E+00 0.38805364509703E+00
  88        5PX      -.27064923915492E-01 0.76412629068293E-02 -.82876924826073E+00 -.38510488037471E-01 0.36965856762937E-01
  89        5PY      0.25681319410434E+00 -.16731417216517E-01 0.77025872422960E+00 -.54784527198970E-02 -.30146994364643E-01
  90        5PZ      0.63148492118238E+00 -.14692844481693E-01 0.68676024865186E+00 -.89245882850281E-01 -.28574151044226E-01
  91        6PX      -.76227811524100E+00 0.97873669554957E+00 0.95399345037985E+00 0.59949942168749E-01 0.10879342596558E+01
  92        6PY      0.45140336662219E+00 -.10226679663963E+01 -.82555326756840E+00 0.10747057392931E+00 -.10669110895283E+01
  93        6PZ      -.71525572994423E-01 -.12121538788059E+01 -.55771792405115E+00 0.39658579654987E+00 -.10561348001476E+01
  94        7PX      -.53340708766830E+00 0.88062132029492E+00 0.30318403733955E+00 0.25015707138154E+00 0.18639632877536E+01
  95        7PY      0.56691276122854E+00 -.84789517870429E+00 -.51508925847123E+00 -.44427697111048E+00 -.24921198321592E+01
  96        7PZ      0.64165003769783E+00 -.90844538839113E+00 -.80812651620947E+00 -.79667623170722E+00 -.33818535492030E+01
          Condensed to atoms (all electrons):
              1          2          3          4
     1  C    6.076085   0.172179  -0.392495  -0.150179
     2  C    0.172179   5.487408   0.444673   0.190948
     3  H   -0.392495   0.444673   1.254457  -0.302849
     4  H   -0.150179   0.190948  -0.302849   1.257496
 Mulliken atomic charges:
              1
     1  C    0.294410
     2  C   -0.295209
     3  H   -0.003786
     4  H    0.004584
 Sum of Mulliken atomic charges =  -0.00000
 Mulliken charges with hydrogens summed into heavy atoms:
              1
     1  C    0.294410
     2  C   -0.294410
 Sum of Mulliken charges with hydrogens summed into heavy atoms =  -0.00000
 Electronic spatial extent (au):  <R**2>=            100.7738
 Charge=             -0.0000 electrons
 Dipole moment (field-independent basis, Debye):
    X=              0.3428    Y=              0.7180    Z=              2.4852  Tot=              2.6095
 Quadrupole moment (field-independent basis, Debye-Ang):
   XX=            -11.7080   YY=            -13.7071   ZZ=             -9.8626
   XY=             -1.6234   XZ=              0.6568   YZ=              1.2373
 Traceless Quadrupole moment (field-independent basis, Debye-Ang):
   XX=              0.0513   YY=             -1.9479   ZZ=              1.8967
   XY=             -1.6234   XZ=              0.6568   YZ=              1.2373
 Octapole moment (field-independent basis, Debye-Ang**2):
  XXX=             -1.1181  YYY=             -3.3285  ZZZ=            -19.7775  XYY=             -1.5009
  XXY=             -1.2264  XXZ=             -7.1796  XZZ=              0.4076  YZZ=              2.3410
  YYZ=             -9.0669  XYZ=             -1.9322
 Hexadecapole moment (field-independent basis, Debye-Ang**3):
 XXXX=            -21.2864 YYYY=            -24.1074 ZZZZ=            -88.8073 XXXY=             -0.7271
 XXXZ=             -1.4664 YYYX=             -0.7802 YYYZ=             -7.3087 ZZZX=             -2.8456
 ZZZY=             -1.0987 XXYY=             -7.6726 XXZZ=            -16.0596 YYZZ=            -19.4055
 XXYZ=             -2.6248 YYXZ=             -3.0332 ZZXY=             -3.9466
 N-N= 2.219289979973D+01 E-N=-2.227178631381D+02  KE= 7.613263323253D+01
 Orbital energies and kinetic energies (alpha):
                                 1                 2
   1         O       -.10386851978490E+02 0.15945587007157E+02
   2         O       -.10347631689220E+02 0.15930894831489E+02
   3         O       -.86497584830045E+00 0.15872483690773E+01
   4         O       -.62112394116094E+00 0.12644049958630E+01
   5         O       -.51172297698521E+00 0.88378430650954E+00
   6         O       -.39476067038663E+00 0.13996852867125E+01
   7         O       -.37618810781080E+00 0.10547118194571E+01
   8         V       -.44485735342927E-01 0.10326809962130E+01
   9         V       0.78496279081901E-02 0.22018359278764E-01
  10         V       0.12699578713753E-01 0.14487528030438E-01
  11         V       0.19771604401122E-01 0.21108529312277E-01
  12         V       0.25065282357710E-01 0.35761504202244E-01
  13         V       0.34024518651989E-01 0.71831114606759E-01
  14         V       0.36018478129880E-01 0.68880098855772E-01
  15         V       0.37204520880973E-01 0.44202016954015E-01
  16         V       0.38133238533387E-01 0.91515595237378E-01
  17         V       0.42366473321340E-01 0.57901334914761E-01
  18         V       0.55869626823541E-01 0.86247796142369E+00
  19         V       0.62252220494050E-01 0.92979951311530E-01
  20         V       0.72312744940454E-01 0.10189378744117E+00
  21         V       0.76232267797476E-01 0.78996184945915E-01
  22         V       0.88367212381112E-01 0.25969087958627E+00
  23         V       0.90673107019580E-01 0.23552436773243E+00
  24         V       0.92134574909857E-01 0.12295247288110E+00
  25         V       0.94384641893485E-01 0.12969191815710E+00
  26         V       0.10203479961973E+00 0.14330604880024E+00
  27         V       0.11848102185976E+00 0.15493057621661E+00
  28         V       0.14302217579023E+00 0.33114547717491E+00
  29         V       0.15640359548605E+00 0.22570771655782E+00
  30         V       0.15939502524251E+00 0.33770641150992E+00
  31         V       0.17083927185954E+00 0.24654895549608E+00
  32         V       0.17440338698048E+00 0.24891620252141E+00
  33         V       0.17489832583895E+00 0.23614067582094E+00
  34         V       0.17957354322453E+00 0.25299653030326E+00
  35         V       0.19028628324159E+00 0.20277549047653E+00
  36         V       0.19772937920141E+00 0.34959517527614E+00
  37         V       0.20009896213600E+00 0.22852246973639E+00
  38         V       0.20362659931002E+00 0.29277583426926E+00
  39         V       0.21681297027442E+00 0.55687947239818E+00
  40         V       0.21741263459528E+00 0.40501143133588E+00
  41         V       0.23357572525724E+00 0.26172254499877E+00
  42         V       0.24184777362334E+00 0.30774526934449E+00
  43         V       0.24456283875252E+00 0.30871643061280E+00
  44         V       0.25013132860776E+00 0.38811473134041E+00
  45         V       0.30039529497035E+00 0.66923819946962E+00
  46         V       0.33025941158732E+00 0.59674783024270E+00
  47         V       0.34232004611812E+00 0.86703623101741E+00
  48         V       0.34947642086454E+00 0.49615880629824E+00
  49         V       0.40794782414573E+00 0.87576104004884E+00
  50         V       0.42286355256795E+00 0.58450795361399E+00
  51         V       0.44174188445028E+00 0.65242433812717E+00
  52         V       0.46650097205287E+00 0.72662733279950E+00
  53         V       0.48920778118992E+00 0.68635769616430E+00
  54         V       0.51046671415564E+00 0.64016922031204E+00
  55         V       0.51163914728140E+00 0.79309291382095E+00
  56         V       0.57206762043328E+00 0.82112015519001E+00
  57         V       0.57343603974632E+00 0.77202972027557E+00
  58         V       0.60265194294891E+00 0.88414514015155E+00
  59         V       0.60766292672198E+00 0.95446074255424E+00
  60         V       0.62708200068546E+00 0.11236085742665E+01
  61         V       0.66286738740581E+00 0.13769508185138E+01
  62         V       0.67749558290787E+00 0.89580289489283E+00
  63         V       0.69086913344762E+00 0.11075517293454E+01
  64         V       0.70467744866629E+00 0.11814862822027E+01
  65         V       0.71467552773010E+00 0.13537955129409E+01
  66         V       0.73307928673971E+00 0.15430854630800E+01
  67         V       0.78127211141534E+00 0.18863372982759E+01
  68         V       0.85287265761421E+00 0.13452589038292E+01
  69         V       0.90104615573214E+00 0.17537845087372E+01
  70         V       0.90923177057940E+00 0.18658450694809E+01
  71         V       0.95911968573357E+00 0.18901646157585E+01
  72         V       0.10854258423810E+01 0.20812262847618E+01
  73         V       0.12052089355648E+01 0.22819771449292E+01
  74         V       0.13420571142717E+01 0.21721729857143E+01
  75         V       0.14099653438574E+01 0.21730907591872E+01
  76         V       0.14452353932925E+01 0.21712583805016E+01
  77         V       0.14639663668441E+01 0.21313150759615E+01
  78         V       0.15487881946354E+01 0.22597831519552E+01
  79         V       0.15766191791541E+01 0.23756245722317E+01
  80         V       0.16043738687102E+01 0.22637844490918E+01
  81         V       0.17065962035846E+01 0.24276221147308E+01
  82         V       0.17180331286636E+01 0.24461798735787E+01
  83         V       0.17301099226723E+01 0.24159816905044E+01
  84         V       0.17772877978816E+01 0.25778952286165E+01
  85         V       0.19707297312016E+01 0.27560867055231E+01
  86         V       0.19896368720590E+01 0.28104899651021E+01
  87         V       0.20592103299568E+01 0.28919670444711E+01
  88         V       0.20836023714655E+01 0.30096070395164E+01
  89         V       0.21270145443037E+01 0.35905117966288E+01
  90         V       0.23017380673679E+01 0.38645577270982E+01
  91         V       0.24402724422091E+01 0.37925736094232E+01
  92         V       0.25420886987423E+01 0.37393216074809E+01
  93         V       0.26496393981172E+01 0.39382741768929E+01
  94         V       0.51323068782766E+01 0.13150495305332E+02
  95         V       0.55887459401596E+01 0.14507948566033E+02
 Total kinetic energy from orbitals= 7.613263323253D+01
 No NMR shielding tensors so no spin-rotation constants.
 Leave Link  601 at Tue Jun 13 17:02:58 2023, MaxMem= 1966080000 cpu:       1.2
 (Enter /local/g09-source/g09/l9999.exe)

 Test job not archived.
 1\1\GINC-WUX01\SP\RwB97XD\Gen\C2H2\ISSLERK\13-Jun-2023\0\\#p wB97XD/GE
 N 6D Iop(6/7=3) Iop(9/40=14) scf(maxcyc=200,conver=7) nosym Guess(Read
 ,TCheck) GFInput\\Comment\\0,1\C,0,-0.038122905,-0.089715598,-0.011232
 282\C,0,0.11040531,0.22652082,1.299589481\H,0,1.138708343,-0.102725808
 ,1.872187409\H,0,-0.590970783,0.93089673,2.067472541\\Version=EM64L-G0
 9RevA.02\HF=-77.2152753\RMSD=6.208e-08\Dipole=0.1348594,0.2824998,0.97
 77693\Quadrupole=0.038112,-1.4482263,1.4101143,-1.2069368,0.4883332,0.
 9199109\PG=C01 [X(C2H2)]\\@


 THOSE WHO ARE UNABLE TO LEARN FROM PAST MEETINGS
 ARE CONDEMNED TO REPEAT THEM.
 Job cpu time:  0 days  0 hours  0 minutes 52.5 seconds.
 File lengths (MBytes):  RWF=     10 Int=      0 D2E=      0 Chk=      1 Scr=      1
 Normal termination of Gaussian 09 at Tue Jun 13 17:02:58 2023.
