 Entering Gaussian System, Link 0=g09
 Initial command:
 /local/g09-source/g09/l1.exe /scratch/1532360/TRAJ_1/Gau-17768.inp -scrdir=/scratch/1532360/TRAJ_1/
 Entering Link 1 = /local/g09-source/g09/l1.exe PID=     17770.
  
 Copyright (c) 1988,1990,1992,1993,1995,1998,2003,2009, Gaussian, Inc.
                  All Rights Reserved.
  
 This is part of the Gaussian(R) 09 program.  It is based on
 the Gaussian(R) 03 system (copyright 2003, Gaussian, Inc.),
 the Gaussian(R) 98 system (copyright 1998, Gaussian, Inc.),
 the Gaussian(R) 94 system (copyright 1995, Gaussian, Inc.),
 the Gaussian 92(TM) system (copyright 1992, Gaussian, Inc.),
 the Gaussian 90(TM) system (copyright 1990, Gaussian, Inc.),
 the Gaussian 88(TM) system (copyright 1988, Gaussian, Inc.),
 the Gaussian 86(TM) system (copyright 1986, Carnegie Mellon
 University), and the Gaussian 82(TM) system (copyright 1983,
 Carnegie Mellon University). Gaussian is a federally registered
 trademark of Gaussian, Inc.
  
 This software contains proprietary and confidential information,
 including trade secrets, belonging to Gaussian, Inc.
  
 This software is provided under written license and may be
 used, copied, transmitted, or stored only in accord with that
 written license.
  
 The following legend is applicable only to US Government
 contracts under FAR:
  
                    RESTRICTED RIGHTS LEGEND
  
 Use, reproduction and disclosure by the US Government is
 subject to restrictions as set forth in subparagraphs (a)
 and (c) of the Commercial Computer Software - Restricted
 Rights clause in FAR 52.227-19.
  
 Gaussian, Inc.
 340 Quinnipiac St., Bldg. 40, Wallingford CT 06492
  
  
 ---------------------------------------------------------------
 Warning -- This program may not be used in any manner that
 competes with the business of Gaussian, Inc. or will provide
 assistance to any competitor of Gaussian, Inc.  The licensee
 of this program is prohibited from giving any competitor of
 Gaussian, Inc. access to this program.  By using this program,
 the user acknowledges that Gaussian, Inc. is engaged in the
 business of creating and licensing software in the field of
 computational chemistry and represents and warrants to the
 licensee that it is not a competitor of Gaussian, Inc. and that
 it will not use this program in any manner prohibited above.
 ---------------------------------------------------------------
  

 Cite this work as:
 Gaussian 09, Revision A.02,
 M. J. Frisch, G. W. Trucks, H. B. Schlegel, G. E. Scuseria, 
 M. A. Robb, J. R. Cheeseman, G. Scalmani, V. Barone, B. Mennucci, 
 G. A. Petersson, H. Nakatsuji, M. Caricato, X. Li, H. P. Hratchian, 
 A. F. Izmaylov, J. Bloino, G. Zheng, J. L. Sonnenberg, M. Hada, 
 M. Ehara, K. Toyota, R. Fukuda, J. Hasegawa, M. Ishida, T. Nakajima, 
 Y. Honda, O. Kitao, H. Nakai, T. Vreven, J. A. Montgomery, Jr., 
 J. E. Peralta, F. Ogliaro, M. Bearpark, J. J. Heyd, E. Brothers, 
 K. N. Kudin, V. N. Staroverov, R. Kobayashi, J. Normand, 
 K. Raghavachari, A. Rendell, J. C. Burant, S. S. Iyengar, J. Tomasi, 
 M. Cossi, N. Rega, J. M. Millam, M. Klene, J. E. Knox, J. B. Cross, 
 V. Bakken, C. Adamo, J. Jaramillo, R. Gomperts, R. E. Stratmann, 
 O. Yazyev, A. J. Austin, R. Cammi, C. Pomelli, J. W. Ochterski, 
 R. L. Martin, K. Morokuma, V. G. Zakrzewski, G. A. Voth, 
 P. Salvador, J. J. Dannenberg, S. Dapprich, A. D. Daniels, 
 O. Farkas, J. B. Foresman, J. V. Ortiz, J. Cioslowski, 
 and D. J. Fox, Gaussian, Inc., Wallingford CT, 2009.
 
 ******************************************
 Gaussian 09:  EM64L-G09RevA.02 11-Jun-2009
                13-Jun-2023 
 ******************************************
 %Chk=neu.chk
 %Nproc=6
 Will use up to    6 processors via shared memory.
 %Mem=15000Mb
 ----------------------------------------------------------------------
 #p wB97XD/GEN 6D Iop(6/7=3) Iop(9/40=14) scf(maxcyc=200,conver=7) nosy
 m Guess(Read,TCheck) GFInput
 ----------------------------------------------------------------------
 1/38=1/1;
 2/12=2,15=1,17=6,18=5,40=1/2;
 3/5=7,8=2,11=2,16=1,24=10,25=1,30=1,74=-58/1,2,3;
 4/5=102/1;
 5/5=2,6=7,7=200/2;
 6/7=3,8=2,9=2,10=2,28=1/1;
 99/5=1,9=1/99;
 Leave Link    1 at Tue Jun 13 17:05:25 2023, MaxMem= 1966080000 cpu:       0.3
 (Enter /local/g09-source/g09/l101.exe)
 -------
 Comment
 -------
 Symbolic Z-matrix:
 Charge =  0 Multiplicity = 1
 C                    -0.03799  -0.08898  -0.00781 
 C                     0.11137   0.22549   1.29585 
 H                     1.12664  -0.09897   1.87155 
 H                    -0.59203   0.93067   2.07193 
 
 NAtoms=      4 NQM=      4 NQMF=      0 NMic=      0 NMicF=      0 NTot=      4.
                    Isotopes and Nuclear Properties:
 (Nuclear quadrupole moments (NQMom) in fm**2, nuclear magnetic moments (NMagM)
  in nuclear magnetons)

  Atom         1           2           3           4
 IAtWgt=          12          12           1           1
 AtmWgt=  12.0000000  12.0000000   1.0078250   1.0078250
 NucSpn=           0           0           1           1
 AtZEff=   0.0000000   0.0000000   0.0000000   0.0000000
 NQMom=    0.0000000   0.0000000   0.0000000   0.0000000
 NMagM=    0.0000000   0.0000000   2.7928460   2.7928460
 Leave Link  101 at Tue Jun 13 17:05:26 2023, MaxMem= 1966080000 cpu:       0.5
 (Enter /local/g09-source/g09/l202.exe)
                          Input orientation:                          
 ---------------------------------------------------------------------
 Center     Atomic      Atomic             Coordinates (Angstroms)
 Number     Number       Type             X           Y           Z
 ---------------------------------------------------------------------
      1          6           0       -0.037987   -0.088978   -0.007810
      2          6           0        0.111371    0.225487    1.295847
      3          1           0        1.126641   -0.098969    1.871546
      4          1           0       -0.592029    0.930670    2.071927
 ---------------------------------------------------------------------
                    Distance matrix (angstroms):
                    1          2          3          4
     1  C    0.000000
     2  C    1.349340   0.000000
     3  H    2.210981   1.211393   0.000000
     4  H    2.381586   1.262678   2.013488   0.000000
 Symmetry turned off by external request.
 Stoichiometry    C2H2
 Framework group  C1[X(C2H2)]
 Deg. of freedom     6
 Full point group                 C1      NOp   1
 Rotational constants (GHZ):    249.8140157     34.7320747     30.5112463
 Leave Link  202 at Tue Jun 13 17:05:26 2023, MaxMem= 1966080000 cpu:       0.0
 (Enter /local/g09-source/g09/l301.exe)
 General basis read from cards:  (6D, 7F)
 Centers:   3  4
 S 4 1.0
     Exponent=  1.3010000000D+01 Coefficients=  1.9685000000D-02
     Exponent=  1.9620000000D+00 Coefficients=  1.3797700000D-01
     Exponent=  4.4460000000D-01 Coefficients=  4.7814800000D-01
     Exponent=  1.2200000000D-01 Coefficients=  5.0124000000D-01
 S 1 1.0
     Exponent=  1.2200000000D-01 Coefficients=  1.0000000000D+00
 S 1 1.0
     Exponent=  2.9740000000D-02 Coefficients=  1.0000000000D+00
 S 1 1.0
     Exponent=  7.2500000000D-03 Coefficients=  1.0000000000D+00
 P 1 1.0
     Exponent=  7.2700000000D-01 Coefficients=  1.0000000000D+00
 P 1 1.0
     Exponent=  1.4100000000D-01 Coefficients=  1.0000000000D+00
 P 1 1.0
     Exponent=  2.7300000000D-02 Coefficients=  1.0000000000D+00
 ****
 Centers:   1  2
 S 9 1.0
     Exponent=  6.6650000000D+03 Coefficients=  6.9200000000D-04
     Exponent=  1.0000000000D+03 Coefficients=  5.3290000000D-03
     Exponent=  2.2800000000D+02 Coefficients=  2.7077000000D-02
     Exponent=  6.4710000000D+01 Coefficients=  1.0171800000D-01
     Exponent=  2.1060000000D+01 Coefficients=  2.7474000000D-01
     Exponent=  7.4950000000D+00 Coefficients=  4.4856400000D-01
     Exponent=  2.7970000000D+00 Coefficients=  2.8507400000D-01
     Exponent=  5.2150000000D-01 Coefficients=  1.5204000000D-02
     Exponent=  1.5960000000D-01 Coefficients= -3.1910000000D-03
 S 9 1.0
     Exponent=  6.6650000000D+03 Coefficients= -1.4600000000D-04
     Exponent=  1.0000000000D+03 Coefficients= -1.1540000000D-03
     Exponent=  2.2800000000D+02 Coefficients= -5.7250000000D-03
     Exponent=  6.4710000000D+01 Coefficients= -2.3312000000D-02
     Exponent=  2.1060000000D+01 Coefficients= -6.3955000000D-02
     Exponent=  7.4950000000D+00 Coefficients= -1.4998100000D-01
     Exponent=  2.7970000000D+00 Coefficients= -1.2726200000D-01
     Exponent=  5.2150000000D-01 Coefficients=  5.4452900000D-01
     Exponent=  1.5960000000D-01 Coefficients=  5.8049600000D-01
 S 1 1.0
     Exponent=  1.5960000000D-01 Coefficients=  1.0000000000D+00
 S 1 1.0
     Exponent=  4.6900000000D-02 Coefficients=  1.0000000000D+00
 S 1 1.0
     Exponent=  1.3800000000D-02 Coefficients=  1.0000000000D+00
 P 4 1.0
     Exponent=  9.4390000000D+00 Coefficients=  3.8109000000D-02
     Exponent=  2.0020000000D+00 Coefficients=  2.0948000000D-01
     Exponent=  5.4560000000D-01 Coefficients=  5.0855700000D-01
     Exponent=  1.5170000000D-01 Coefficients=  4.6884200000D-01
 P 1 1.0
     Exponent=  1.5170000000D-01 Coefficients=  1.0000000000D+00
 P 1 1.0
     Exponent=  4.0410000000D-02 Coefficients=  1.0000000000D+00
 P 1 1.0
     Exponent=  1.0800000000D-02 Coefficients=  1.0000000000D+00
 D 1 1.0
     Exponent=  5.5000000000D-01 Coefficients=  1.0000000000D+00
 D 1 1.0
     Exponent=  1.5100000000D-01 Coefficients=  1.0000000000D+00
 D 1 1.0
     Exponent=  4.1500000000D-02 Coefficients=  1.0000000000D+00
 ****
 Ernie: Thresh=  0.10000D-02 Tol=  0.10000D-05 Strict=F.
 Ernie:  6 primitive shells out of 82 were deleted.
 AO basis set in the form of general basis input (Overlap normalization):
      1 0
 S   8 1.00       0.000000000000
      0.6665000000D+04  0.6911871665D-03
      0.1000000000D+04  0.5322577364D-02
      0.2280000000D+03  0.2704512777D-01
      0.6471000000D+02  0.1015883442D+00
      0.2106000000D+02  0.2743843617D+00
      0.7495000000D+01  0.4477328995D+00
      0.2797000000D+01  0.2843702133D+00
      0.5215000000D+00  0.1819701823D-01
 S   7 1.00       0.000000000000
      0.6665000000D+04  0.7733547404D-05
      0.2280000000D+03  0.2780721367D-03
      0.6471000000D+02 -0.2578756542D-02
      0.2106000000D+02 -0.8950876838D-02
      0.7495000000D+01 -0.1060588547D+00
      0.2797000000D+01 -0.1315176856D+00
      0.5215000000D+00  0.1099486598D+01
 S   1 1.00       0.000000000000
      0.1596000000D+00  0.1000000000D+01
 S   1 1.00       0.000000000000
      0.4690000000D-01  0.1000000000D+01
 S   1 1.00       0.000000000000
      0.1380000000D-01  0.1000000000D+01
 P   4 1.00       0.000000000000
      0.9439000000D+01  0.3810902127D-01
      0.2002000000D+01  0.2094801169D+00
      0.5456000000D+00  0.5085572839D+00
      0.1517000000D+00  0.4688422617D+00
 P   1 1.00       0.000000000000
      0.1517000000D+00  0.1000000000D+01
 P   1 1.00       0.000000000000
      0.4041000000D-01  0.1000000000D+01
 P   1 1.00       0.000000000000
      0.1080000000D-01  0.1000000000D+01
 D   1 1.00       0.000000000000
      0.5500000000D+00  0.1000000000D+01
 D   1 1.00       0.000000000000
      0.1510000000D+00  0.1000000000D+01
 D   1 1.00       0.000000000000
      0.4150000000D-01  0.1000000000D+01
 ****
      2 0
 S   8 1.00       0.000000000000
      0.6665000000D+04  0.6911871665D-03
      0.1000000000D+04  0.5322577364D-02
      0.2280000000D+03  0.2704512777D-01
      0.6471000000D+02  0.1015883442D+00
      0.2106000000D+02  0.2743843617D+00
      0.7495000000D+01  0.4477328995D+00
      0.2797000000D+01  0.2843702133D+00
      0.5215000000D+00  0.1819701823D-01
 S   7 1.00       0.000000000000
      0.6665000000D+04  0.7733547404D-05
      0.2280000000D+03  0.2780721367D-03
      0.6471000000D+02 -0.2578756542D-02
      0.2106000000D+02 -0.8950876838D-02
      0.7495000000D+01 -0.1060588547D+00
      0.2797000000D+01 -0.1315176856D+00
      0.5215000000D+00  0.1099486598D+01
 S   1 1.00       0.000000000000
      0.1596000000D+00  0.1000000000D+01
 S   1 1.00       0.000000000000
      0.4690000000D-01  0.1000000000D+01
 S   1 1.00       0.000000000000
      0.1380000000D-01  0.1000000000D+01
 P   4 1.00       0.000000000000
      0.9439000000D+01  0.3810902127D-01
      0.2002000000D+01  0.2094801169D+00
      0.5456000000D+00  0.5085572839D+00
      0.1517000000D+00  0.4688422617D+00
 P   1 1.00       0.000000000000
      0.1517000000D+00  0.1000000000D+01
 P   1 1.00       0.000000000000
      0.4041000000D-01  0.1000000000D+01
 P   1 1.00       0.000000000000
      0.1080000000D-01  0.1000000000D+01
 D   1 1.00       0.000000000000
      0.5500000000D+00  0.1000000000D+01
 D   1 1.00       0.000000000000
      0.1510000000D+00  0.1000000000D+01
 D   1 1.00       0.000000000000
      0.4150000000D-01  0.1000000000D+01
 ****
      3 0
 S   4 1.00       0.000000000000
      0.1301000000D+02  0.1968498999D-01
      0.1962000000D+01  0.1379769298D+00
      0.4446000000D+00  0.4781477569D+00
      0.1220000000D+00  0.5012397451D+00
 S   1 1.00       0.000000000000
      0.1220000000D+00  0.1000000000D+01
 S   1 1.00       0.000000000000
      0.2974000000D-01  0.1000000000D+01
 S   1 1.00       0.000000000000
      0.7250000000D-02  0.1000000000D+01
 P   1 1.00       0.000000000000
      0.7270000000D+00  0.1000000000D+01
 P   1 1.00       0.000000000000
      0.1410000000D+00  0.1000000000D+01
 P   1 1.00       0.000000000000
      0.2730000000D-01  0.1000000000D+01
 ****
      4 0
 S   4 1.00       0.000000000000
      0.1301000000D+02  0.1968498999D-01
      0.1962000000D+01  0.1379769298D+00
      0.4446000000D+00  0.4781477569D+00
      0.1220000000D+00  0.5012397451D+00
 S   1 1.00       0.000000000000
      0.1220000000D+00  0.1000000000D+01
 S   1 1.00       0.000000000000
      0.2974000000D-01  0.1000000000D+01
 S   1 1.00       0.000000000000
      0.7250000000D-02  0.1000000000D+01
 P   1 1.00       0.000000000000
      0.7270000000D+00  0.1000000000D+01
 P   1 1.00       0.000000000000
      0.1410000000D+00  0.1000000000D+01
 P   1 1.00       0.000000000000
      0.2730000000D-01  0.1000000000D+01
 ****

 Integral buffers will be    131072 words long.
 Raffenetti 2 integral format.
 Two-electron integral symmetry is turned off.
    96 basis functions,   146 primitive gaussians,    96 cartesian basis functions
     7 alpha electrons        7 beta electrons
       nuclear repulsion energy        22.2858786078 Hartrees.
 IExCor= 4639 DFT=T Ex+Corr=wB97XD ExCW=0 ScaHFX=  1.000000
 ScaDFX=  1.000000  1.000000  1.000000  1.000000 ScalE2=  1.000000  1.000000
 IRadAn=      0 IRanWt=     -1 IRanGd=            0 ICorTp=0
  HFx wShort=  0.000000 wLong=  0.200000 cFull=  0.222036 cShort=  0.000000 cLong=  0.777964
  DFx wShort=  0.000000 wLong=  0.200000 cFull=  0.000000 cShort=  0.000000 cLong=  1.000000
 NAtoms=    4 NActive=    4 NUniq=    4 SFac= 7.50D-01 NAtFMM=   80 NAOKFM=F Big=F
 R6Disp: Dispersion energy =        -0.0003097994 Hartrees.
 Nuclear repulsion after empirical dispersion term =       22.2855688083 Hartrees.
 Leave Link  301 at Tue Jun 13 17:05:26 2023, MaxMem= 1966080000 cpu:       0.3
 (Enter /local/g09-source/g09/l302.exe)
 NPDir=0 NMtPBC=     1 NCelOv=     1 NCel=       1 NClECP=     1 NCelD=      1
         NCelK=      1 NCelE2=     1 NClLst=     1 CellRange=     0.0.
 One-electron integrals computed using PRISM.
 NBasis=    96 RedAO= T  NBF=    96
 NBsUse=    95 1.00D-06 NBFU=    95
 Precomputing XC quadrature grid using
 IXCGrd= 2 IRadAn=           0 IRanWt=          -1 IRanGd=           0 AccXCQ= 1.00D-10.
 NRdTot=     266 NPtTot=       34180 NUsed=       36107 NTot=       36139
 NSgBfM=    96    96    96    96    96 NAtAll=     4     4.
 Leave Link  302 at Tue Jun 13 17:05:26 2023, MaxMem= 1966080000 cpu:       1.3
 (Enter /local/g09-source/g09/l303.exe)
 DipDrv:  MaxL=1.
 Leave Link  303 at Tue Jun 13 17:05:26 2023, MaxMem= 1966080000 cpu:       0.3
 (Enter /local/g09-source/g09/l401.exe)
 Initial guess read from the checkpoint file:  neu.chk
 B after Tr=    -0.000067    0.000303    0.000178
         Rot=    1.000000   -0.000023    0.000254   -0.000025 Ang=   0.03 deg.
 Guess basis will be translated and rotated to current coordinates.
 Leave Link  401 at Tue Jun 13 17:05:26 2023, MaxMem= 1966080000 cpu:       0.8
 (Enter /local/g09-source/g09/l502.exe)
 Closed shell SCF:
 Requested convergence on RMS density matrix=1.00D-07 within 200 cycles.
 Requested convergence on MAX density matrix=1.00D-05.
 Requested convergence on             energy=1.00D-05.
 No special actions if energy rises.
 Using DIIS extrapolation, IDIIS=  1040.
 Two-electron integral symmetry not used.
        36058 words used for storage of precomputed grid.
 IEnd=      106988 IEndB=      106988 NGot=  1966080000 MDV=  1966022725
 LenX=  1966022725 LenY=  1966013068
 Fock matrices will be formed incrementally for  20 cycles.

 Cycle   1  Pass 1  IDiag  1:
 FoFJK:  IHMeth= 1 ICntrl=     0 DoSepK=T KAlg= 1 I1Cent= 0 FoldK=F
 FoFCou: FMM=F IPFlag=           0 FMFlag=      100000 FMFlg1=           0
         NFxFlg=           0 DoJE=T BraDBF=F KetDBF=F FulRan=T
         Omega=  0.000000  0.000000  1.000000  0.000000  0.000000 ICntrl=     500 IOpCl=  0
         NMat0=    1 NMatS0=    1 NMatT0=    0 NMatD0=    1 NMtDS0=    0 NMtDT0=    0
         I1Cent=           0 NGrid=           0.
 Symmetry not used in FoFCou.
 E= -77.2160846765609    
 DIIS: error= 4.86D-04 at cycle   1 NSaved=   1.
 NSaved= 1 IEnMin= 1 EnMin= -77.2160846765609     IErMin= 1 ErrMin= 4.86D-04
 ErrMax= 4.86D-04 EMaxC= 1.00D-01 BMatC= 3.78D-05 BMatP= 3.78D-05
 IDIUse=3 WtCom= 9.95D-01 WtEn= 4.86D-03
 Coeff-Com:  0.100D+01
 Coeff-En:   0.100D+01
 Coeff:      0.100D+01
 Gap=     0.339 Goal=   None    Shift=    0.000
 RMSDP=9.94D-04 MaxDP=1.84D-02              OVMax= 2.75D-03

 Cycle   2  Pass 1  IDiag  1:
 RMSU=  6.29D-04    CP:  1.01D+00
 FoFJK:  IHMeth= 1 ICntrl=     0 DoSepK=T KAlg= 1 I1Cent= 0 FoldK=F
 E= -77.2161311370741     Delta-E=       -0.000046460513 Rises=F Damp=F
 DIIS: error= 1.44D-04 at cycle   2 NSaved=   2.
 NSaved= 2 IEnMin= 2 EnMin= -77.2161311370741     IErMin= 2 ErrMin= 1.44D-04
 ErrMax= 1.44D-04 EMaxC= 1.00D-01 BMatC= 3.47D-06 BMatP= 3.78D-05
 IDIUse=3 WtCom= 9.99D-01 WtEn= 1.44D-03
 Coeff-Com:  0.970D-01 0.903D+00
 Coeff-En:   0.000D+00 0.100D+01
 Coeff:      0.969D-01 0.903D+00
 Gap=     0.333 Goal=   None    Shift=    0.000
 RMSDP=1.36D-04 MaxDP=2.39D-03 DE=-4.65D-05 OVMax= 1.20D-03

 Cycle   3  Pass 1  IDiag  1:
 RMSU=  6.94D-05    CP:  1.02D+00  1.10D+00
 FoFJK:  IHMeth= 1 ICntrl=     0 DoSepK=T KAlg= 1 I1Cent= 0 FoldK=F
 E= -77.2161351976896     Delta-E=       -0.000004060615 Rises=F Damp=F
 DIIS: error= 8.46D-05 at cycle   3 NSaved=   3.
 NSaved= 3 IEnMin= 3 EnMin= -77.2161351976896     IErMin= 3 ErrMin= 8.46D-05
 ErrMax= 8.46D-05 EMaxC= 1.00D-01 BMatC= 9.90D-07 BMatP= 3.47D-06
 IDIUse=1 WtCom= 1.00D+00 WtEn= 0.00D+00
 Coeff-Com: -0.413D-01 0.308D+00 0.733D+00
 Coeff:     -0.413D-01 0.308D+00 0.733D+00
 Gap=     0.333 Goal=   None    Shift=    0.000
 RMSDP=4.39D-05 MaxDP=1.08D-03 DE=-4.06D-06 OVMax= 5.57D-04

 Cycle   4  Pass 1  IDiag  1:
 RMSU=  1.84D-05    CP:  1.02D+00  1.13D+00  9.44D-01
 FoFJK:  IHMeth= 1 ICntrl=     0 DoSepK=T KAlg= 1 I1Cent= 0 FoldK=F
 E= -77.2161364674412     Delta-E=       -0.000001269752 Rises=F Damp=F
 DIIS: error= 4.10D-05 at cycle   4 NSaved=   4.
 NSaved= 4 IEnMin= 4 EnMin= -77.2161364674412     IErMin= 4 ErrMin= 4.10D-05
 ErrMax= 4.10D-05 EMaxC= 1.00D-01 BMatC= 1.28D-07 BMatP= 9.90D-07
 IDIUse=1 WtCom= 1.00D+00 WtEn= 0.00D+00
 Coeff-Com: -0.225D-01 0.624D-01 0.297D+00 0.663D+00
 Coeff:     -0.225D-01 0.624D-01 0.297D+00 0.663D+00
 Gap=     0.333 Goal=   None    Shift=    0.000
 RMSDP=1.01D-05 MaxDP=2.58D-04 DE=-1.27D-06 OVMax= 2.57D-04

 Cycle   5  Pass 1  IDiag  1:
 RMSU=  6.54D-06    CP:  1.02D+00  1.13D+00  9.73D-01  9.96D-01
 FoFJK:  IHMeth= 1 ICntrl=     0 DoSepK=T KAlg= 1 I1Cent= 0 FoldK=F
 E= -77.2161366419769     Delta-E=       -0.000000174536 Rises=F Damp=F
 DIIS: error= 1.25D-05 at cycle   5 NSaved=   5.
 NSaved= 5 IEnMin= 5 EnMin= -77.2161366419769     IErMin= 5 ErrMin= 1.25D-05
 ErrMax= 1.25D-05 EMaxC= 1.00D-01 BMatC= 1.81D-08 BMatP= 1.28D-07
 IDIUse=1 WtCom= 1.00D+00 WtEn= 0.00D+00
 Coeff-Com:  0.293D-02-0.498D-01-0.676D-01 0.218D+00 0.897D+00
 Coeff:      0.293D-02-0.498D-01-0.676D-01 0.218D+00 0.897D+00
 Gap=     0.333 Goal=   None    Shift=    0.000
 RMSDP=4.87D-06 MaxDP=8.89D-05 DE=-1.75D-07 OVMax= 1.22D-04

 Cycle   6  Pass 1  IDiag  1:
 RMSU=  2.49D-06    CP:  1.02D+00  1.14D+00  9.93D-01  1.10D+00  9.89D-01
 FoFJK:  IHMeth= 1 ICntrl=     0 DoSepK=T KAlg= 1 I1Cent= 0 FoldK=F
 E= -77.2161366787477     Delta-E=       -0.000000036771 Rises=F Damp=F
 DIIS: error= 2.60D-06 at cycle   6 NSaved=   6.
 NSaved= 6 IEnMin= 6 EnMin= -77.2161366787477     IErMin= 6 ErrMin= 2.60D-06
 ErrMax= 2.60D-06 EMaxC= 1.00D-01 BMatC= 7.80D-10 BMatP= 1.81D-08
 IDIUse=1 WtCom= 1.00D+00 WtEn= 0.00D+00
 Coeff-Com:  0.256D-02-0.861D-02-0.337D-01-0.356D-01-0.108D-01 0.109D+01
 Coeff:      0.256D-02-0.861D-02-0.337D-01-0.356D-01-0.108D-01 0.109D+01
 Gap=     0.333 Goal=   None    Shift=    0.000
 RMSDP=1.65D-06 MaxDP=4.48D-05 DE=-3.68D-08 OVMax= 6.48D-05

 Cycle   7  Pass 1  IDiag  1:
 RMSU=  6.58D-07    CP:  1.02D+00  1.13D+00  9.91D-01  1.12D+00  1.05D+00
                    CP:  1.30D+00
 FoFJK:  IHMeth= 1 ICntrl=     0 DoSepK=T KAlg= 1 I1Cent= 0 FoldK=F
 E= -77.2161366833358     Delta-E=       -0.000000004588 Rises=F Damp=F
 DIIS: error= 1.02D-06 at cycle   7 NSaved=   7.
 NSaved= 7 IEnMin= 7 EnMin= -77.2161366833358     IErMin= 7 ErrMin= 1.02D-06
 ErrMax= 1.02D-06 EMaxC= 1.00D-01 BMatC= 1.29D-10 BMatP= 7.80D-10
 IDIUse=1 WtCom= 1.00D+00 WtEn= 0.00D+00
 Coeff-Com: -0.222D-03 0.617D-02 0.697D-02-0.278D-01-0.121D+00 0.294D-02
 Coeff-Com:  0.113D+01
 Coeff:     -0.222D-03 0.617D-02 0.697D-02-0.278D-01-0.121D+00 0.294D-02
 Coeff:      0.113D+01
 Gap=     0.333 Goal=   None    Shift=    0.000
 RMSDP=7.02D-07 MaxDP=2.04D-05 DE=-4.59D-09 OVMax= 3.06D-05

 Cycle   8  Pass 1  IDiag  1:
 RMSU=  2.68D-07    CP:  1.02D+00  1.13D+00  9.91D-01  1.12D+00  1.06D+00
                    CP:  1.43D+00  1.36D+00
 FoFJK:  IHMeth= 1 ICntrl=     0 DoSepK=T KAlg= 1 I1Cent= 0 FoldK=F
 E= -77.2161366840849     Delta-E=       -0.000000000749 Rises=F Damp=F
 DIIS: error= 3.04D-07 at cycle   8 NSaved=   8.
 NSaved= 8 IEnMin= 8 EnMin= -77.2161366840849     IErMin= 8 ErrMin= 3.04D-07
 ErrMax= 3.04D-07 EMaxC= 1.00D-01 BMatC= 9.17D-12 BMatP= 1.29D-10
 IDIUse=1 WtCom= 1.00D+00 WtEn= 0.00D+00
 Coeff-Com: -0.176D-03-0.246D-03 0.187D-02 0.702D-02 0.279D-01-0.107D+00
 Coeff-Com: -0.210D+00 0.128D+01
 Coeff:     -0.176D-03-0.246D-03 0.187D-02 0.702D-02 0.279D-01-0.107D+00
 Coeff:     -0.210D+00 0.128D+01
 Gap=     0.333 Goal=   None    Shift=    0.000
 RMSDP=3.04D-07 MaxDP=6.49D-06 DE=-7.49D-10 OVMax= 1.09D-05

 Cycle   9  Pass 1  IDiag  1:
 RMSU=  5.75D-08    CP:  1.02D+00  1.14D+00  9.91D-01  1.12D+00  1.07D+00
                    CP:  1.44D+00  1.49D+00  1.47D+00
 FoFJK:  IHMeth= 1 ICntrl=     0 DoSepK=T KAlg= 1 I1Cent= 0 FoldK=F
 E= -77.2161366841570     Delta-E=       -0.000000000072 Rises=F Damp=F
 DIIS: error= 5.71D-08 at cycle   9 NSaved=   9.
 NSaved= 9 IEnMin= 9 EnMin= -77.2161366841570     IErMin= 9 ErrMin= 5.71D-08
 ErrMax= 5.71D-08 EMaxC= 1.00D-01 BMatC= 6.29D-13 BMatP= 9.17D-12
 IDIUse=1 WtCom= 1.00D+00 WtEn= 0.00D+00
 Coeff-Com:  0.625D-04-0.462D-03-0.961D-03 0.412D-04 0.563D-02 0.139D-01
 Coeff-Com: -0.528D-01-0.189D+00 0.122D+01
 Coeff:      0.625D-04-0.462D-03-0.961D-03 0.412D-04 0.563D-02 0.139D-01
 Coeff:     -0.528D-01-0.189D+00 0.122D+01
 Gap=     0.333 Goal=   None    Shift=    0.000
 RMSDP=6.13D-08 MaxDP=1.38D-06 DE=-7.20D-11 OVMax= 2.42D-06

 SCF Done:  E(RwB97XD) =  -77.2161366842     A.U. after    9 cycles
             Convg  =    0.6134D-07             -V/T =  2.0139
 KE= 7.615468631199D+01 PE=-2.229223226587D+02 EE= 4.726593085424D+01
 Leave Link  502 at Tue Jun 13 17:05:33 2023, MaxMem= 1966080000 cpu:      42.3
 (Enter /local/g09-source/g09/l601.exe)
 Copying SCF densities to generalized density rwf, IOpCl= 0 IROHF=0.

 **********************************************************************

            Population analysis using the SCF density.

 **********************************************************************

 Alpha  occ. eigenvalues --  -10.38522 -10.34625  -0.86697  -0.62209  -0.51201
 Alpha  occ. eigenvalues --   -0.39436  -0.37730
 Alpha virt. eigenvalues --   -0.04434   0.00782   0.01270   0.01979   0.02504
 Alpha virt. eigenvalues --    0.03400   0.03604   0.03723   0.03825   0.04237
 Alpha virt. eigenvalues --    0.05710   0.06232   0.07242   0.07625   0.08841
 Alpha virt. eigenvalues --    0.09079   0.09204   0.09429   0.10207   0.11854
 Alpha virt. eigenvalues --    0.14314   0.15664   0.15993   0.17093   0.17456
 Alpha virt. eigenvalues --    0.17504   0.17989   0.19041   0.19753   0.20028
 Alpha virt. eigenvalues --    0.20370   0.21712   0.21757   0.23354   0.24176
 Alpha virt. eigenvalues --    0.24447   0.25016   0.30074   0.33120   0.34304
 Alpha virt. eigenvalues --    0.34949   0.40868   0.42355   0.44159   0.46730
 Alpha virt. eigenvalues --    0.49027   0.51089   0.51210   0.57228   0.57459
 Alpha virt. eigenvalues --    0.60278   0.60878   0.62798   0.66486   0.67765
 Alpha virt. eigenvalues --    0.69066   0.70539   0.71570   0.73547   0.78103
 Alpha virt. eigenvalues --    0.85506   0.90127   0.90805   0.95982   1.08759
 Alpha virt. eigenvalues --    1.20698   1.34242   1.41133   1.44588   1.46342
 Alpha virt. eigenvalues --    1.54686   1.57709   1.60471   1.70873   1.72586
 Alpha virt. eigenvalues --    1.73063   1.77854   1.97413   1.99158   2.06244
 Alpha virt. eigenvalues --    2.08546   2.12818   2.31046   2.44480   2.55182
 Alpha virt. eigenvalues --    2.65350   5.13901   5.59777
     Molecular Orbital Coefficients:
                           1         2         3         4         5
                           O         O         O         O         O
     Eigenvalues --  -.10385221685192E+02 -.10346250384397E+02 -.86696851474477E+00 -.62208892487564E+00 -.51201342336731E+00
   1 1   C  1S       0.99882893913554E+00 -.11182997484785E-01 -.14054846922196E+00 -.12648888364943E+00 0.38457287029409E-02
   2        2S       0.12133262698919E-01 0.23943261081782E-03 0.27562866634169E+00 0.26197872455907E+00 -.85700019632733E-02
   3        3S       -.13884214770025E-01 -.99891221682820E-02 0.16988309629747E+00 0.65360266827375E+00 -.94391911215044E-01
   4        4S       0.24769174240862E-02 0.12425498131252E-01 0.78423839772592E-01 0.60450270520857E-01 -.18571835981328E-01
   5        5S       -.15790029447309E-01 0.18947738226880E-02 -.47810526568411E-01 0.14542255670157E-01 -.13243020608550E-01
   6        6PX      0.38459514231940E-03 0.71568457423860E-04 0.32737421252047E-01 -.18206862983974E-02 0.19960127725693E+00
   7        6PY      0.88623697941174E-03 0.14477089171415E-03 0.65350946123395E-01 0.24683393126267E-01 -.11039050723925E+00
   8        6PZ      0.36708864454723E-02 0.59004045532671E-03 0.27079887520567E+00 0.95094769926445E-01 0.17828323808472E-02
   9        7PX      -.14686320986568E-02 -.65640592071653E-03 -.11336915258838E-01 0.34238549050897E-02 -.10035968836000E+00
  10        7PY      -.25842443223480E-02 -.10474019299933E-02 -.35864225956580E-01 0.35832361361219E-01 0.47541405828438E-01
  11        7PZ      -.11463201602788E-01 -.48391842124510E-02 -.13733281313005E+00 0.13417886081764E+00 -.33175535682941E-01
  12        8PX      0.62830181327241E-03 0.27087352813305E-04 0.31954197906635E-02 0.39899703611045E-01 -.32632633708309E-01
  13        8PY      0.57299887952674E-03 0.48563573762967E-03 -.93110236800359E-02 -.38508400723778E-01 0.13180646673888E-01
  14        8PZ      0.32920509867232E-02 0.28504054106810E-02 -.16437877196343E-01 0.23982600989892E-02 -.88994227361446E-02
  15        9PX      -.89869598091073E-04 0.15223119280710E-03 -.12380518437687E-02 0.71695328863011E-03 -.46983976121115E-03
  16        9PY      -.25263730857238E-03 0.58199148271280E-04 -.15945550134585E-02 -.13826882023895E-03 -.87294963873579E-03
  17        9PZ      -.11600815218438E-02 0.11057896409829E-03 -.64198730203583E-02 -.14348485308111E-03 -.24204353361736E-02
  18       10XX      -.57658991557709E-02 0.79992386329968E-04 -.13626579428539E-01 -.80891094430125E-02 0.42084247433062E-02
  19       10YY      -.56268253803462E-02 0.79530587990384E-04 -.14128737178672E-01 -.84185046428251E-02 -.45484840036001E-02
  20       10ZZ      -.46468866138759E-02 -.15218427463673E-04 0.13908689573344E-01 -.75060932764102E-02 0.10481896193948E-02
  21       10XY      0.10795712732759E-03 -.32035392017318E-05 -.31053116370791E-03 -.13041699587533E-02 0.32168895629207E-02
  22       10XZ      0.11487708412355E-03 -.20850820048728E-04 0.47119102921594E-02 -.17933278238547E-02 0.19542577215590E-01
  23       10YZ      0.28441484926539E-03 -.33230065079623E-04 0.80287502493289E-02 0.66859631186667E-03 -.10405312646992E-01
  24       11XX      0.21921500372076E-02 -.77572605841552E-03 -.22425769901683E-01 -.25928130637219E-01 -.55987145552288E-02
  25       11YY      0.22097632027947E-02 -.73153782450594E-03 -.24891642595022E-01 -.15685119138030E-01 0.54911503450039E-03
  26       11ZZ      -.96926091200068E-03 -.14790961689458E-02 -.42142892802358E-01 0.20628506783632E-01 -.70986269954920E-02
  27       11XY      0.22084490612752E-04 0.62621738537793E-04 -.17008715245803E-03 0.63412235564099E-02 -.43344332064234E-02
  28       11XZ      -.49701014957230E-03 -.86463859358777E-04 0.20164510803467E-03 -.18785065622717E-02 -.20764942753484E-01
  29       11YZ      -.88022019068217E-03 -.18966569920913E-03 -.66692331274967E-02 0.11539772588322E-01 0.11459853511888E-01
  30       12XX      0.33155816942716E-02 -.91686348178565E-03 -.91411128794712E-02 -.10359677603418E-01 -.40097121499313E-02
  31       12YY      0.32853365450794E-02 -.89531288174526E-03 -.53832209554836E-02 -.19779225746775E-01 0.16582738670513E-02
  32       12ZZ      0.41940498955992E-02 -.55697144010810E-03 -.10169783765574E-01 -.11538616749950E-01 -.26399211233856E-02
  33       12XY      0.79764038701841E-05 -.52576928458984E-07 0.41162636898423E-02 -.15407768611175E-02 0.27038503498501E-03
  34       12XZ      0.19445096587984E-03 -.27364696457890E-04 -.46351509240603E-03 0.11963303347623E-01 -.61718591993922E-02
  35       12YZ      0.20156172405794E-03 0.34873058637835E-04 -.32184678486479E-02 -.76823659401871E-02 0.15204515423647E-02
  36 2   C  1S       0.11088435009845E-01 0.99846531439038E+00 -.17004973066755E+00 0.83548139993523E-01 0.71933479902246E-02
  37        2S       0.79904452278216E-03 0.13818742141989E-01 0.33098783437048E+00 -.16770365879565E+00 -.13896362536500E-01
  38        3S       0.24013367944019E-01 0.17919048943313E-01 0.36984626161923E+00 -.44744154224090E+00 0.57659427146500E-01
  39        4S       0.59050275674291E-02 0.12802404587922E-01 0.87626164498453E-01 0.34012738574262E-01 -.13024761599192E-01
  40        5S       0.16511858864730E-01 0.36472514951974E-02 0.84690292218607E-01 0.78036386316501E-02 0.11410894054672E-01
  41        6PX      0.46277495190056E-04 0.16971626326932E-03 -.63512344288642E-02 -.96097705110378E-01 0.54569013212164E+00
  42        6PY      0.81495576568313E-04 -.11787396943548E-04 -.48922036276580E-01 -.12063138914254E+00 -.30909131216965E+00
  43        6PZ      0.42433116633979E-03 0.12328675232038E-03 -.18767310781590E+00 -.50039090554418E+00 -.14927083563477E-01
  44        7PX      0.15348906874538E-03 -.41673979693229E-03 -.18561585748335E-01 0.68526807977750E-01 -.12463111327738E+00
  45        7PY      -.12638162981296E-02 -.57424426694297E-03 0.26121513122241E-01 0.79097164325989E-01 0.63104943298206E-01
  46        7PZ      -.48208484069673E-02 -.30271622142391E-02 0.52755490339152E-01 0.35089720227608E+00 -.21541372112236E-01
  47        8PX      0.98329958140620E-03 0.20714198079992E-02 -.10373785353669E-02 -.29077128922114E-01 -.38833682891377E-01
  48        8PY      0.16724820683621E-02 0.29345399984293E-02 0.24222520811119E-01 0.32093101646482E-01 0.25514351093828E-01
  49        8PZ      0.56313197465315E-02 0.99845853417823E-02 0.59510636216030E-01 0.24697196748635E-02 0.36052376533032E-02
  50        9PX      -.15728812682980E-03 -.80431867545152E-04 -.80898213920565E-03 0.86412648405807E-03 -.13784347832326E-01
  51        9PY      -.45738102954079E-03 0.63616872793722E-04 0.11335277441381E-02 -.19800720543899E-03 0.88718966515919E-02
  52        9PZ      -.16765872494008E-02 0.30825727841469E-03 0.59098365136967E-04 0.30437296903470E-02 0.21571132655879E-02
  53       10XX      0.13608006551434E-03 -.63504889061979E-02 -.11293644888727E-01 -.77862898655337E-02 0.60145545386270E-02
  54       10YY      0.61416030469550E-04 -.63338313605908E-02 -.11484377603615E-01 0.82120189315078E-03 -.17671715619803E-02
  55       10ZZ      -.11946035260075E-02 -.61314704814075E-02 0.98124802882240E-02 0.14919608106390E-01 -.39664874041885E-02
  56       10XY      -.15929146666112E-04 0.54231471908031E-04 -.87401020182374E-03 0.78557750926215E-02 -.23140339059256E-03
  57       10XZ      -.13567976475045E-03 0.71145876683075E-04 0.22993984128481E-02 0.11374696118270E-02 0.58156781624311E-02
  58       10YZ      -.42137533874851E-03 0.69170447646251E-05 0.69950748739940E-02 0.22858346961729E-02 -.49685795758291E-02
  59       11XX      0.32532185188122E-02 0.58744125843024E-02 0.19136472779563E-02 0.46522634148670E-01 -.10294316955757E-01
  60       11YY      0.26110424107190E-02 0.55792070949186E-02 -.62207908926465E-04 0.17747959964343E-01 0.25867296558813E-01
  61       11ZZ      0.60773448998755E-02 0.77763730142840E-02 -.20321472799351E-03 -.10573602936642E+00 0.39901104864069E-01
  62       11XY      -.77586653808206E-03 -.48602635840061E-03 -.44930750589350E-02 -.32479423388145E-01 -.13538923601815E-01
  63       11XZ      0.41332170289217E-03 0.14777027981009E-03 -.11613776767433E-02 -.28290187157701E-01 -.69615186576468E-01
  64       11YZ      0.14420645546770E-02 0.10074711231935E-02 0.16793911707433E-02 -.29277601450714E-01 0.53137055839346E-01
  65       12XX      0.35740776985463E-02 0.12732021665200E-01 0.25131106838712E-01 0.31031835650262E-01 -.17295641239893E-01
  66       12YY      0.29685066922251E-02 0.11576443730240E-01 0.12616244157146E-01 0.23769735967071E-01 -.15951347178892E-01
  67       12ZZ      0.26517617670376E-02 0.10795975956976E-01 0.58543648196730E-02 0.27865285352942E-01 -.13976239618667E-01
  68       12XY      -.58245794525342E-03 -.12545654295674E-02 -.10977284973429E-01 0.59161679360372E-03 -.44393376757419E-02
  69       12XZ      -.12813730389612E-04 -.32750211743266E-03 0.17519468047960E-02 0.94621295554165E-02 -.13383175040290E-01
  70       12YZ      0.10841861757957E-04 0.50617045960303E-04 -.15432699651615E-02 -.12177126600165E-01 0.92143970442097E-02
  71 3   H  1S       -.29249051286080E-03 0.79608273067697E-03 0.19007781129759E+00 -.40574041060428E+00 0.52827643386932E+00
  72        2S       -.75253235780511E-02 -.60964190482833E-02 -.10159280032843E+00 0.82670711353401E-01 -.52365586132405E-01
  73        3S       -.14694915680382E-01 -.28544645976248E-01 -.65351279635680E-01 -.89370888687934E-01 0.24833468580870E+00
  74        4S       -.11279771239159E-03 -.55511150355865E-03 -.12981798438674E-02 -.56037784443383E-02 0.29773792784734E-01
  75        5PX      -.41717875427510E-04 -.59079259486582E-04 -.13055462141683E-01 0.15826462753715E-01 -.10249108033110E-01
  76        5PY      0.53454755494192E-04 0.83113793228880E-05 0.35780338518363E-02 -.74338157717301E-02 0.10288003135997E-02
  77        5PZ      0.11816933609771E-03 -.56212410880039E-04 -.96793165041535E-02 0.18668614913209E-02 -.10670831658721E-01
  78        6PX      0.20300508282293E-02 0.13080860891657E-02 0.19905314004809E-03 0.10244304576619E-01 -.28233175325269E-01
  79        6PY      -.73475834955700E-03 -.40662091166391E-03 0.81548751274497E-03 0.67668097366067E-02 0.11313944281341E-01
  80        6PZ      0.85497613440732E-03 0.76249347908659E-03 0.57832487116887E-03 0.31161443567622E-01 -.38230614495073E-02
  81        7PX      0.18551457927117E-02 0.36376316642768E-02 0.33135772168599E-02 0.12726893776013E-01 -.39917212324381E-01
  82        7PY      -.39980514446058E-03 -.75544159503503E-03 -.24270739026120E-02 -.27215409967789E-02 0.91750948045534E-02
  83        7PZ      0.15404545570884E-02 0.29270702615979E-02 -.34374069711284E-02 0.68665559992239E-02 -.29076370453571E-01
  84 4   H  1S       -.36397867585722E-04 0.72091183234177E-03 0.15007783730756E+00 -.40918534340043E+00 -.51581330887742E+00
  85        2S       -.75306875928458E-02 -.69652700374933E-02 -.12435876004449E+00 0.96625892328896E-01 -.26848922139385E-01
  86        3S       -.13573483947647E-01 -.29066700818917E-01 -.80382295630907E-01 -.30204487551159E-01 -.16867361916653E+00
  87        4S       0.24292750537732E-03 -.58678010103712E-03 -.68816771606727E-02 0.98630932532132E-04 -.29330551685109E-01
  88        5PX      0.14808065686270E-03 0.70369267072369E-04 0.66648491240909E-02 -.13786978342747E-01 -.39580654488006E-02
  89        5PY      -.82552953633099E-04 -.93389044796227E-04 -.70454921039860E-02 0.10615964150160E-01 0.77679556357740E-02
  90        5PZ      0.52227792117790E-04 -.13840986726503E-03 -.89365645128288E-02 0.61472920171362E-02 0.13206036441035E-01
  91        6PX      -.15305343208502E-02 -.11386974219289E-02 -.64415852645281E-02 0.70273808429801E-02 -.33311830632636E-01
  92        6PY      0.13511610705230E-02 0.10975186362955E-02 0.87618850490699E-02 0.87348040200023E-02 0.29989062293757E-01
  93        6PZ      0.11095617735792E-02 0.11000389460070E-02 0.13759688759005E-01 0.31768147304456E-01 0.19649106017225E-01
  94        7PX      -.89582050545873E-03 -.20455575901698E-02 -.11788896822392E-02 -.46885239896509E-04 -.14445074250350E-01
  95        7PY      0.12317800716851E-02 0.26985392954592E-02 0.24746040054891E-02 0.28145164416919E-02 0.16379683097629E-01
  96        7PZ      0.18521601737614E-02 0.36975604638959E-02 0.42401989526992E-02 0.28672237981394E-02 0.18254151656456E-01
                           6         7         8         9        10
                           O         O         V         V         V
     Eigenvalues --  -.39435783792040E+00 -.37729761020339E+00 -.44336791105585E-01 0.78201325370222E-02 0.12696653062142E-01
   1 1   C  1S       0.11257151092032E+00 0.76634640635089E-02 -.26526121299495E-02 -.32483799257913E-02 0.31692728397963E-03
   2        2S       -.23526791120156E+00 -.15615414805707E-01 0.66521703409642E-02 0.43761728430081E-02 -.15336082587034E-02
   3        3S       -.10279855812083E+00 -.26035388672943E-01 0.13069049980647E-02 -.19271561265390E+00 -.26920802484674E-01
   4        4S       -.56606670942494E-02 -.45907636573368E-02 0.51670599455080E-02 0.19911917377944E+01 -.24298956426891E+00
   5        5S       -.12235118083426E+00 -.12035737591780E-01 -.85150254917005E-02 -.21617569859833E+01 0.13831404416020E+01
   6        6PX      0.37523313754609E-01 0.28930154187250E+00 0.70162270163991E+00 0.46566324989918E-02 0.28679033532803E-02
   7        6PY      0.13868030828651E+00 0.52694930208625E+00 -.37788926977220E+00 -.88646318112185E-02 -.63175655878127E-03
   8        6PZ      0.70828827020029E+00 -.90837273621868E-01 0.51856290406958E-01 -.32769467907919E-01 0.23394643629268E-02
   9        7PX      0.63241808713072E-02 -.30129709883737E-01 0.39190021897128E-01 -.17435442905224E-01 -.48369633187963E-03
  10        7PY      0.18339890412848E-01 -.56065853513618E-01 -.24223300258157E-01 -.22682222506058E-01 -.27129662113884E-02
  11        7PZ      0.60485751208900E-01 0.91545876864108E-02 -.64989431328900E-02 -.10685361706194E+00 -.10997316220002E-01
  12        8PX      0.27289513017784E-01 0.12793953735438E-01 0.14097325144271E+00 0.12436117133957E+00 0.13257451106621E+00
  13        8PY      -.24746191044781E-01 0.15129471650493E-01 -.73817216368974E-01 0.12898308089139E+00 -.11510798726211E+00
  14        8PZ      0.17555330789534E-01 -.84202927957068E-02 0.88350540092077E-02 0.72341009009321E+00 -.12030943833073E+00
  15        9PX      -.11882622737098E-02 0.27913672914873E-03 0.27434668995616E-01 0.43178642915089E-01 0.45019479010083E+00
  16        9PY      -.29848792380263E-02 0.84262030729374E-03 -.15458470009500E-01 -.79110782706727E-01 -.23658886909042E+00
  17        9PZ      -.11783965700106E-01 -.24401406061747E-02 -.83505603324073E-04 -.31725523931746E+00 0.95761225736015E-01
  18       10XX      -.12346695721657E-01 0.20971983731824E-02 0.11601262959146E-02 -.49949027615548E-03 -.27587040304305E-03
  19       10YY      -.76709956925718E-02 0.11841270875814E-01 -.33058914285805E-02 -.88618410311165E-03 0.35131456340839E-03
  20       10ZZ      0.41088777520365E-01 -.12718476001646E-01 0.51829898229072E-03 0.14221078936847E-03 -.10328503895470E-03
  21       10XY      0.28515215205907E-02 0.76546789403959E-02 0.26264780334392E-02 -.52725309429206E-03 -.10478646250513E-03
  22       10XZ      0.31257588138635E-02 0.16118528881126E-01 0.12411674913852E-01 0.77677283462799E-04 -.11048057539390E-02
  23       10YZ      0.12084207243770E-01 0.29101220518640E-01 -.66283681091141E-02 0.54609336233193E-03 0.55294547755351E-03
  24       11XX      0.15227430294738E-01 0.13376595598219E-02 0.17844401430266E-02 -.20975746675779E-01 -.13312035213763E-02
  25       11YY      0.24906851387838E-01 0.41186767316457E-02 -.44626430149518E-02 -.16575151204536E-01 -.32612309445552E-02
  26       11ZZ      0.79255982274638E-01 -.35874945832744E-02 -.22118737195938E-02 -.57285271039571E-01 -.73378744398584E-02
  27       11XY      0.74765555829674E-02 0.31561115868205E-02 0.33679879177030E-02 0.47702565218770E-02 -.87348285126239E-03
  28       11XZ      0.36718323899396E-02 0.56327820584980E-02 0.15806634554223E-01 -.63125845110931E-02 -.28738910787357E-02
  29       11YZ      0.14550013232736E-01 0.98972846685996E-02 -.96876246199297E-02 -.11770265015247E-01 0.12528394789105E-03
  30       12XX      0.32919235444449E-01 0.20265332494360E-02 0.43810695892640E-02 0.12796432258038E-02 -.41734366088654E-01
  31       12YY      0.28587509374607E-01 0.27936930441478E-02 -.13310846690050E-02 -.72259900651057E-02 -.43509372943841E-01
  32       12ZZ      0.23686770852719E-01 -.19422324263228E-02 0.22737879026737E-03 0.16651631911493E+00 -.71443783472363E-01
  33       12XY      0.74172000837487E-03 0.11778991462434E-02 0.19696869591887E-02 -.42759620107641E-02 0.14167884807279E-01
  34       12XZ      0.56400993831530E-02 0.17862933861505E-02 0.76096509429763E-02 0.32438190640881E-01 0.26214944527926E-01
  35       12YZ      -.90414735801640E-02 0.14344630560500E-02 -.40812820640382E-02 0.41769469345928E-01 -.30688689650329E-01
  36 2   C  1S       -.53536984192243E-01 0.10285877369322E-03 0.39561353673212E-02 -.11981531753795E-01 0.20656350013660E-03
  37        2S       0.11580163453222E+00 0.47551102334983E-03 -.91546540046042E-02 0.36637424838359E-01 -.15296451509288E-02
  38        3S       -.10919889694734E+00 -.44707093777493E-03 0.28124634431250E-02 0.47861745856846E+00 -.32224363681311E-01
  39        4S       0.36710731395702E-01 -.15052889837002E-02 0.83739924283751E-02 0.24271784357758E+01 -.34669623295506E+00
  40        5S       0.14652767290691E+00 0.13204753214128E-01 0.11429849910965E-01 0.60722483803410E+01 -.17030127589586E+01
  41        6PX      -.90467756454639E-01 0.29498334555724E+00 0.23435237040233E-01 0.46714156134576E-02 -.25666585916305E-01
  42        6PY      -.12927418092727E+00 0.53328941067411E+00 -.22247650056072E-01 0.14031457241700E-01 0.13616477644433E-01
  43        6PZ      -.35603220676173E+00 -.21589522827712E+00 -.33000527496564E-01 0.52182270418402E-01 -.19319337460976E-02
  44        7PX      0.41636172717224E-01 -.15299148398486E-01 -.23633157806667E-01 -.78674859242867E-02 -.86880850778618E-01
  45        7PY      0.75892330410699E-01 -.28000822969228E-01 0.16851581404269E-01 -.11982700331371E-01 0.42154391143183E-01
  46        7PZ      0.29260656766675E+00 0.26861686580486E-01 0.78325822737869E-02 -.59878785830437E-01 -.16370425568519E-01
  47        8PX      -.11809156370313E-01 0.91348754976519E-02 -.36398650016769E-01 0.11906612809804E+00 -.69098072218153E+00
  48        8PY      0.42822660544056E-01 0.20923394374927E-01 0.21369164281347E-01 0.37662803762324E+00 0.36644694551195E+00
  49        8PZ      0.80100882442315E-01 0.12943347344164E-02 0.74575747567885E-02 0.11723869162153E+01 -.54111127390349E-01
  50        9PX      -.48352321896926E-03 -.21828434547453E-02 -.20437365896255E-02 -.18918022937463E+00 -.22608419799590E+01
  51        9PY      -.20347330969147E-02 -.46585993984463E-02 0.99636765950961E-03 0.16023512556595E-02 0.14353291473353E+01
  52        9PZ      -.90351899162884E-02 0.16478183436598E-02 -.11470265767168E-02 -.25624427922397E+00 0.49370859324316E+00
  53       10XX      -.54677653592902E-02 -.15113091499861E-02 -.13319045633667E-01 -.77229647502918E-03 0.41100885640016E-04
  54       10YY      -.29362771847934E-02 -.77274022235224E-02 0.10820330674891E-01 -.58353122580312E-03 -.13628372061716E-03
  55       10ZZ      -.10972773640516E-01 0.78727330729163E-02 0.36087668802368E-02 0.46742770545001E-03 0.11189192190983E-03
  56       10XY      0.24221661600953E-02 -.27855288362792E-02 -.72773800440446E-02 -.16301776918805E-04 0.17889231705072E-03
  57       10XZ      -.28866365924976E-03 -.91948243144882E-02 -.44925430216744E-01 -.22911742819107E-03 0.25922630137280E-03
  58       10YZ      -.18536847750079E-02 -.15793403853696E-01 0.26898935634730E-01 0.20701772617838E-03 -.12170365607701E-03
  59       11XX      0.12230439463665E-01 0.36412940211585E-02 -.40702856010242E-03 0.60382956348387E-01 -.23183905097583E-01
  60       11YY      -.11472421514754E-01 -.47950608383532E-03 0.63299100819611E-02 0.56093925964026E-01 0.31232867205975E-02
  61       11ZZ      -.10734780870807E+00 0.14935408855624E-02 0.30710642270497E-02 0.93082904479958E-01 -.24010413139877E-03
  62       11XY      -.25181922365482E-01 -.25708178716884E-02 -.58442873310475E-02 -.90488662746972E-02 -.18284108710997E-02
  63       11XZ      -.17602807494054E-01 -.31128121036179E-02 -.17326426991549E-01 0.80226958481773E-03 -.29741681310102E-01
  64       11YZ      -.23897866407269E-01 -.61586346451537E-02 0.10824517566120E-01 0.19553134729863E-01 0.18225205395813E-01
  65       12XX      0.94611701857974E-03 -.25821421640831E-02 -.74185030317275E-02 0.97386105596319E+00 -.11650752953539E+00
  66       12YY      -.13098820213902E-01 -.40107465256108E-02 0.15635561445645E-01 0.87432725804091E+00 -.87707903799328E-01
  67       12ZZ      -.36122778227286E-01 -.34655040599974E-02 0.78155844441038E-02 0.83308487500078E+00 -.10395708122311E+00
  68       12XY      -.72755550617485E-02 -.16083403729424E-02 -.72421315724695E-02 -.10372339314869E+00 0.22249982623895E-02
  69       12XZ      0.45895252588364E-02 0.12139979223554E-03 -.37252258083746E-01 -.13994574663448E-01 -.31286047548730E-01
  70       12YZ      -.15454801979758E-01 -.35723342894506E-02 0.23365437186145E-01 0.34846929049618E-02 0.12377642795342E-01
  71 3   H  1S       -.13169165237185E+00 -.50930274127855E-02 -.33938040410669E+00 -.61751576764849E-02 -.92040648140263E-02
  72        2S       -.38204753189519E-01 -.12507307963108E-01 -.35487870512656E-01 -.12612688723091E+00 0.23146304286874E+00
  73        3S       -.96195306066777E-01 -.34222754241196E-02 -.91309815820035E-01 -.39597086478134E+01 0.20896261469920E+01
  74        4S       -.40194149396999E-02 -.51194509534589E-03 -.46248711923267E-01 -.10007426947637E+01 0.84241341303628E+01
  75        5PX      0.21317861281937E-04 0.62477331228245E-02 -.27068414899825E-02 -.35062360882135E-02 0.86436870530202E-03
  76        5PY      -.27474720492862E-02 0.12063439865128E-01 -.45166613021286E-03 0.13432098731895E-02 -.24588530209942E-03
  77        5PZ      -.44486970757359E-02 -.48569959416222E-02 -.59359002840991E-02 -.11216942106505E-02 0.59965770013275E-03
  78        6PX      0.82469694913512E-02 0.83578271838276E-02 -.54214466340993E-02 0.17585045393846E-01 -.46180951466253E-01
  79        6PY      0.27707025662714E-02 0.91014343200318E-02 -.40017338791296E-02 -.73918975764470E-02 0.15850024346415E-01
  80        6PZ      0.19357017702464E-01 -.17073018044207E-02 -.21591668744204E-01 0.66261225998226E-02 -.26845190734042E-01
  81        7PX      0.86817198861857E-02 0.19341764518151E-02 -.99131955307849E-02 0.55692105193779E+00 -.13756064223350E+00
  82        7PY      -.20481250841470E-02 0.30743038383539E-02 0.56250594012355E-02 -.12020005279310E+00 -.44257974198008E-01
  83        7PZ      0.56216261084226E-02 -.28741425003690E-02 -.35878964100686E-04 0.41553806515316E+00 -.25541749354980E+00
  84 4   H  1S       -.15815940489709E+00 -.61921241343948E-02 0.34235828243956E+00 -.17540115428793E-02 0.73314212960036E-02
  85        2S       -.35987661595044E-01 -.10638514822399E-01 0.22523724793058E-01 -.16418047709604E+00 -.15704987381285E+00
  86        3S       -.50396032028557E-01 0.67796116840554E-02 0.57078366463226E-01 -.42784487433562E+01 -.97169236425691E+00
  87        4S       -.98999740101355E-03 0.21582869626873E-03 0.45223520510936E-01 -.18430664991514E+01 -.82523099779278E+01
  88        5PX      -.33066425124684E-02 0.65425882855630E-02 -.35153099520226E-02 0.25958466745651E-02 0.27974542206277E-03
  89        5PY      -.57565355385151E-05 0.10989642791180E-01 0.42015835325655E-02 -.24155515315704E-02 -.36574203161340E-03
  90        5PZ      -.21214429944242E-02 -.45635598416875E-02 0.57885164161662E-02 -.21106138084077E-02 -.52313384469267E-03
  91        6PX      -.31723316203891E-03 0.34161173684078E-02 -.48164918830550E-02 -.19442777477442E-01 -.18716716720609E-01
  92        6PY      0.95246427443898E-02 0.10997235940941E-01 0.11455200932823E-01 0.15935237434524E-01 0.19747551303161E-01
  93        6PZ      0.26108278926555E-01 -.38789135588520E-03 0.24528557766797E-01 0.13182632946964E-01 0.25862086141435E-01
  94        7PX      0.37116988441510E-02 0.26361051858826E-02 -.14641701022142E-01 -.32008140697367E+00 0.11219828710087E+00
  95        7PY      0.11423048058869E-02 0.11828366847414E-02 0.11484385959300E-01 0.42897925344786E+00 0.23629885447572E-03
  96        7PZ      0.79506955427492E-02 -.25285574061898E-02 0.90821368081346E-02 0.57744726647728E+00 0.12372653452583E+00
                          11        12        13        14        15
                           V         V         V         V         V
     Eigenvalues --  0.19790652559081E-01 0.25042248298069E-01 0.33995491659466E-01 0.36044512546756E-01 0.37229443667495E-01
   1 1   C  1S       -.10803295069895E-01 -.48423619817346E-04 0.24936652418997E-02 -.53665826216869E-02 0.14607164988481E-02
   2        2S       0.71356804807018E-03 0.96776362025030E-03 -.91747979528043E-02 0.11883440300504E-01 -.54079473973016E-02
   3        3S       -.30179047640089E+00 -.10695864992348E+00 -.15150379372396E+00 0.41417931109359E+00 -.10888870203973E+00
   4        4S       -.54451318701651E-01 0.23505056615254E+00 0.30686222275042E+01 -.47252388903629E+01 0.13195679265352E+01
   5        5S       0.18772988840618E+02 -.15045364487754E+00 -.95369833054698E+01 0.53488443391593E+00 -.42334335790072E+00
   6        6PX      -.10155029618458E-01 -.42870469362211E-01 -.91036443343801E-02 0.17852354263371E-01 0.53549150019007E-01
   7        6PY      0.16061941128607E-02 -.73392299334136E-01 0.11348737201126E-01 -.20487176444609E-01 -.24235107696875E-01
   8        6PZ      -.69389613017292E-02 0.25906773174848E-01 0.64426018272535E-01 -.44723806282434E-01 0.18782112009783E-01
   9        7PX      -.67973261262060E-02 -.17747718079737E-01 -.19091369545498E-01 0.65221478357709E-01 0.52409346924154E-01
  10        7PY      -.23066136239965E-01 -.33652977257255E-01 0.96938263322132E-03 0.38866507280457E-01 -.46874576375290E-01
  11        7PZ      -.84841708852618E-01 -.51254984639300E-01 -.44496582628074E-01 0.23168939877357E+00 -.57547103000303E-01
  12        8PX      -.71499191625998E-02 0.23210191832010E+00 0.62067107724093E-01 -.25708577514565E+00 0.80944572010223E+00
  13        8PY      0.74699198570175E-01 0.40144886235546E+00 0.39322947378577E+00 -.29367465426353E+00 -.31540681794673E+00
  14        8PZ      0.18794165874995E+00 -.74506125694731E-01 0.11755977010803E+01 -.19175046480454E+01 0.60188572328232E+00
  15        9PX      0.20979684208554E+00 -.68877331550769E+00 -.55525875954074E+00 -.21731215981830E+01 -.39078307291797E+01
  16        9PY      0.48921036683107E+00 -.12242388237566E+01 -.96913156046861E+00 -.63230281803636E-01 0.26782262727507E+01
  17        9PZ      0.20901536022910E+01 0.41372050334817E+00 -.39563830399842E+01 -.26149062819977E+01 0.93039842311146E+00
  18       10XX      -.16101291910829E-02 0.13125912964529E-03 -.75008899399661E-03 -.18025487942430E-02 0.22477578490365E-03
  19       10YY      -.16330984310523E-02 -.26677253139617E-03 -.87326690483185E-03 0.34213453317004E-03 -.22494356563950E-03
  20       10ZZ      -.31237295424958E-02 0.11998977764769E-03 0.21921926982538E-02 0.99941895035950E-03 -.13955769915790E-03
  21       10XY      0.53780935650600E-04 0.15806225750945E-04 -.53419970822542E-03 0.22469403156752E-02 -.87865045935618E-03
  22       10XZ      -.15008133013622E-03 -.24408768057435E-03 -.34487331432643E-04 0.17809402573780E-03 -.40756517516976E-03
  23       10YZ      -.46492063061945E-03 -.23352203721311E-03 0.12830014105321E-02 -.31668982455980E-03 0.52037130752278E-03
  24       11XX      -.80182723676540E-01 -.51596759413546E-02 -.27791897201715E-01 0.20652864790573E-01 0.20574566237233E-02
  25       11YY      -.86445663580222E-01 -.87383442886409E-02 -.18286600453293E-01 0.35225286488857E-02 -.14814863985952E-01
  26       11ZZ      -.11523355536803E+00 -.14108357284887E-01 -.36432775101619E-01 0.10859476483417E+00 -.38101695428108E-01
  27       11XY      -.53644462420930E-02 -.43287036138250E-02 0.78801828278002E-02 -.94229221622319E-02 0.11184738114856E-01
  28       11XZ      -.27690472972525E-02 -.93056856245046E-02 -.50641971179171E-02 0.31624175142314E-01 0.37645092419257E-01
  29       11YZ      -.87423867497715E-02 -.18287531140332E-01 -.41196727457930E-03 0.25732165919545E-01 -.35660030481142E-01
  30       12XX      -.56692002901037E+00 0.16136956975550E-01 0.15444275570785E-01 -.18005941727864E+00 -.19120870712682E-01
  31       12YY      -.56052638960897E+00 0.19945378390616E-01 0.76945872010881E-01 -.75013189979608E-01 -.30508506691500E-01
  32       12ZZ      -.54858271785547E+00 -.44787788899047E-01 0.21832602402623E+00 -.64536617616741E+00 0.16817450642483E+00
  33       12XY      0.78648894054596E-03 0.25264960568741E-01 0.39461920418468E-01 0.55463669030805E-01 -.26930913507086E-01
  34       12XZ      -.45410992816349E-02 0.48582542695730E-01 -.28215129961668E-02 -.15018449786567E+00 0.38545186624608E-01
  35       12YZ      0.98117730074293E-02 0.88994256613663E-01 0.59998200446470E-01 -.11783142385488E+00 0.56467662747273E-01
  36 2   C  1S       0.63820950552495E-02 0.18033573150103E-02 0.25006641927973E-01 -.24485441015857E-01 0.80781835512119E-02
  37        2S       -.87299402294639E-02 -.16506593290588E-02 -.35783023207692E-01 0.38854998136237E-01 -.16983622004676E-01
  38        3S       0.83739535747462E-01 0.15367819387097E+00 0.62864776162861E+00 -.62086563694160E+00 0.12642598794921E+00
  39        4S       -.10360599054273E+01 0.27373008173191E+00 0.42398994407099E+01 -.52791286336717E+01 0.14982203873742E+01
  40        5S       -.17305121427818E+02 0.49409996780415E+00 0.17934507915651E+02 -.46871118166051E+01 0.16189575932241E+01
  41        6PX      0.62389343142379E-03 0.21622047229357E-02 -.37140022466623E-02 0.23521743368235E-02 -.40433898106101E-02
  42        6PY      -.14649259095260E-02 0.33454035889056E-02 -.19718036686580E-01 0.23663651633109E-01 -.78863160308395E-02
  43        6PZ      -.94705062311901E-02 -.71182707203830E-02 -.94704096291758E-01 0.75016144800415E-01 -.26946213380683E-01
  44        7PX      -.14097178211395E-01 -.10267444754122E-02 0.39784945925671E-01 0.18995349272107E-01 -.76377927585503E-01
  45        7PY      -.39810012219432E-01 -.72583423851206E-02 0.36539230743106E-01 0.48939539378704E-01 0.26545995312127E-01
  46        7PZ      -.14424942380711E+00 -.43861727877656E-01 0.14012289689093E+00 0.19664306965072E+00 -.50898055072091E-01
  47        8PX      0.46045837815382E-01 0.29422645225486E-01 0.44339449863329E+00 -.14176820775983E+00 -.64876938181868E+00
  48        8PY      -.39380018915846E-01 0.69535920215024E-01 0.53042333244789E+00 -.74566107102451E+00 0.60568543727699E+00
  49        8PZ      0.66514251183466E-01 0.15745766576433E+00 0.24043780666456E+01 -.19449524932700E+01 0.57979605578883E+00
  50        9PX      0.43690486593613E+00 0.13634702596681E+01 0.32809458187962E+00 0.26712038246413E+01 0.41269776871560E+01
  51        9PY      0.83153208321104E+00 0.24100221891740E+01 0.54262426993191E+00 -.15980122147953E+00 -.28586195454811E+01
  52        9PZ      0.34344900277866E+01 -.79357161031020E+00 0.21310201127569E+01 0.27762191621513E+01 -.11153994254085E+01
  53       10XX      -.68151075343892E-04 0.90576132009502E-03 0.21072820032177E-02 -.27387354880676E-02 -.15136468498597E-03
  54       10YY      -.15198901221615E-03 0.25146546971501E-02 0.98721392424616E-03 -.10258249525611E-02 0.10723299660605E-02
  55       10ZZ      0.19634043349661E-02 -.31211959631400E-02 -.47555818495477E-03 -.51187029668350E-03 -.83545058433158E-04
  56       10XY      0.49866862372712E-04 0.15276419997989E-02 -.55912162359237E-03 0.68645585242164E-03 -.14357339859020E-02
  57       10XZ      0.66289259415592E-03 0.30643241807492E-02 0.67492680478596E-03 -.13684569190478E-02 -.42398691676188E-02
  58       10YZ      0.58935585945909E-03 0.54202520286007E-02 -.55058543764216E-03 0.10991593449615E-02 0.23097232094139E-02
  59       11XX      0.53620698031764E-02 0.15145017862640E-01 0.17773890693542E+00 -.13046580187703E+00 0.25159404233740E-01
  60       11YY      0.16869080122654E-01 0.10064477239272E-01 0.14599804190031E+00 -.12488122108145E+00 0.17729352510688E-01
  61       11ZZ      0.45009688747584E-01 0.53333307638923E-01 0.17559777027431E+00 -.16789590925993E+00 0.34447746802954E-01
  62       11XY      0.16106233276450E-01 -.68979355884952E-02 -.41595635539911E-01 0.23534368984930E-01 0.94590983289426E-02
  63       11XZ      0.90943825780401E-02 -.44943208041726E-02 -.36247870149781E-02 0.21152601326627E-01 0.38330334850825E-01
  64       11YZ      -.53923749865269E-03 -.75841090779769E-02 0.36556079387276E-01 -.35041054692393E-01 -.17152597392645E-01
  65       12XX      0.13371474918750E+00 0.16030219671223E+00 0.15482443521296E+01 -.23361993273051E+01 0.76924113027184E+00
  66       12YY      0.17673543458904E+00 0.23636986033256E+00 0.13670739825651E+01 -.21891949210405E+01 0.55577962668847E+00
  67       12ZZ      0.13344543925052E+00 -.45114810728332E-01 0.15679553488707E+01 -.18913903316223E+01 0.57682213332429E+00
  68       12XY      0.43886491427932E-01 0.61567133453750E-01 -.20502735583856E+00 0.21503288707814E+00 0.31326210569685E-01
  69       12XZ      -.81176136499487E-02 0.12391466898533E+00 0.18992066168048E-01 0.17299523934633E+00 0.36691472470939E+00
  70       12YZ      -.16663513417692E-01 0.21835228248169E+00 0.15440366120260E+00 0.48318181325524E-01 -.24759599506842E+00
  71 3   H  1S       0.64502976976749E-02 0.39869673201393E-02 0.17045619824474E-01 -.29345935941390E-01 -.18895147422797E-01
  72        2S       0.12044934384968E+00 -.34518555082051E-01 -.42660472874623E+00 0.55722805853085E-02 0.26187009575531E-01
  73        3S       0.86417600572310E+00 -.46764062398840E+00 -.71142251687578E+01 0.88524136875102E+01 -.12050652137877E+01
  74        4S       -.53055861340211E+00 -.79641640351214E-01 -.17471349340802E+01 -.57798752270047E+00 -.11915767592036E+01
  75        5PX      0.12782760527375E-03 0.14281265965067E-02 0.57529940630323E-02 -.57881736235455E-02 0.17378269909517E-02
  76        5PY      0.26570486569524E-03 0.22253490644548E-02 -.14142672486993E-02 0.25044343631970E-02 -.47799969324101E-03
  77        5PZ      0.78141860425164E-03 -.52685052780429E-03 0.36683552542097E-02 -.12197429865055E-02 0.10552381982418E-02
  78        6PX      -.20560627263171E-01 0.15517392657789E-01 0.12690262799543E+00 -.74382493289111E-02 0.15685140483504E-02
  79        6PY      0.81679179689433E-02 -.36701247953771E-03 -.48091082494941E-01 -.92439470612829E-02 -.13265279442160E-01
  80        6PZ      -.46535987557871E-02 0.14313762514527E-02 0.50293618541878E-01 -.38263891370373E-01 -.39935123755277E-01
  81        7PX      -.94894444952728E-01 -.21561142668450E+00 0.10327558338228E+01 -.16681510141113E+01 -.16445211377323E+00
  82        7PY      0.14535279364129E-01 -.48241754898214E+00 -.39002685124873E+00 0.18447406068336E+00 0.10572738797115E+00
  83        7PZ      -.96858479462764E-01 0.19887094158161E+00 0.19105667756897E+00 -.18459307239878E+01 -.17418239756312E+00
  84 4   H  1S       0.47632090784311E-02 0.38725281081924E-02 0.12808655780109E-01 -.51600441670395E-02 0.30382557443869E-01
  85        2S       0.16193566330531E+00 -.34153438866635E-01 -.46793222653256E+00 0.12548591863336E+00 0.30976969654536E-01
  86        3S       0.96554549849351E+00 -.51576419483057E+00 -.74030774252815E+01 0.91118480397153E+01 -.39046393782170E+01
  87        4S       -.97609824010365E+00 -.69377050499902E-01 -.20136230932669E+01 0.20362302947466E+01 0.77804475733391E+00
  88        5PX      0.32856465429034E-03 0.13664885940678E-02 -.37565044902536E-02 0.55288785388227E-02 -.24599216875541E-02
  89        5PY      0.22688891380021E-03 0.28804134796328E-02 0.46390638133904E-02 -.46040106397926E-02 0.16417129177186E-02
  90        5PZ      0.10375429114533E-02 -.71184713294303E-03 0.56232561919742E-02 -.31576041970576E-02 0.51314221850307E-03
  91        6PX      0.22997347677302E-01 -.78421958143894E-02 -.10676566604122E+00 0.17413023479176E-01 0.24513311564993E-02
  92        6PY      -.20211167421786E-01 0.11511990729690E-01 0.91380447571614E-01 -.25341629726568E-01 0.75528002479287E-02
  93        6PZ      -.16520840435815E-01 0.36465323734452E-02 0.74992665060090E-01 -.35334495604205E-01 0.36303122814485E-01
  94        7PX      0.21079158525807E-01 -.30935271548076E+00 -.72365851932032E+00 0.57172235198415E+00 -.70216379003692E+00
  95        7PY      -.71590647595114E-01 -.44014372501564E+00 0.69319829222507E+00 -.10904429125687E+01 0.83193462332274E+00
  96        7PZ      -.16399027774968E+00 0.22467359008467E+00 0.48777627242524E+00 -.18129114973149E+01 0.12477964989691E+01
                          16        17        18        19        20
                           V         V         V         V         V
     Eigenvalues --  0.38246768936222E-01 0.42365378226768E-01 0.57099204399065E-01 0.62317395530552E-01 0.72416311549811E-01
   1 1   C  1S       0.20187417815479E-03 -.19428595481107E-02 0.27604933335578E-02 0.16867194242646E-01 -.22407277786581E-02
   2        2S       0.29942154284270E-03 0.30428800693262E-02 -.12076088259895E-01 -.96911066786460E-01 -.35442434777083E-02
   3        3S       0.44856534861358E-01 -.49327783465736E-01 -.18498440027268E+00 -.89392012757657E+00 -.35172684870420E+00
   4        4S       0.97280943670725E-01 -.82793387412606E+00 0.91757679965058E-01 0.39564154337763E+00 -.77112088119746E+00
   5        5S       0.12169538979707E+00 0.25453066911600E+01 0.13835003614971E+01 0.30457025536005E+02 -.79000152892319E+01
   6        6PX      0.60976593340540E-01 0.42813818864298E-02 0.29859559278438E+00 -.35812886203664E-02 -.72437034138015E-02
   7        6PY      0.10649543852460E+00 -.49722412966023E-02 0.51752342928136E+00 -.47762252635978E-01 -.25625921906835E-01
   8        6PZ      -.38447223086887E-01 -.62789017210141E-02 -.17030078234021E+00 0.37729055831882E-01 -.17106126694096E-01
   9        7PX      0.10301076550425E-01 -.25463411191729E-01 0.24212014118271E-01 -.20844096019032E-01 -.79620531259325E-01
  10        7PY      0.16964977318115E-01 0.85347937547569E-02 0.42382568230627E-01 -.61029575047191E-01 -.27364149843274E-01
  11        7PZ      0.17679218390174E-01 -.24515504004243E-01 -.89075103763488E-01 -.20806475475764E+00 -.18962186457042E+00
  12        8PX      0.19996209503398E+00 0.19875764826378E+00 0.14007558724995E+00 0.13724397225614E-01 -.14877169734433E+01
  13        8PY      0.38770242207508E+00 -.19002422480339E+00 0.27347722257145E+00 0.65722345481075E-01 -.28978466325974E+00
  14        8PZ      -.96684261488745E-01 -.34443903845858E+00 -.75511124336119E-01 0.36190579286878E+00 -.27052348068109E+01
  15        9PX      0.17743856109747E+01 0.99834190227693E+00 -.85542160508911E+00 0.40464486579835E+00 0.85092724963164E-01
  16        9PY      0.31335270018973E+01 -.58406294529405E+00 -.15687450856905E+01 0.68428700582304E+00 -.76128250781124E-01
  17        9PZ      -.12134321966486E+01 -.94275837728938E-01 0.60832120590745E+00 0.25974160748202E+01 -.31196696197746E+00
  18       10XX      -.12332811895869E-03 0.37192192397715E-03 -.14784379602282E-02 -.18948340834144E-02 -.12831770863539E-02
  19       10YY      -.40865531555063E-03 -.82966248296850E-03 -.36755912712854E-02 -.10679786167816E-02 0.10324692496046E-02
  20       10ZZ      0.78185634843201E-03 -.19763255162564E-03 0.53468271231514E-02 0.68604429041413E-03 -.18407690994003E-02
  21       10XY      -.12186547684125E-03 0.74270971540521E-03 -.23342853372330E-02 0.83647158776630E-03 0.17839189381646E-02
  22       10XZ      -.48798473867821E-03 0.36148849782429E-02 -.53980565973790E-02 0.86998312252256E-03 -.11048380564276E-02
  23       10YZ      -.77584119098651E-03 -.19961966562723E-02 -.94910446903680E-02 0.14267637686927E-02 -.55796318039179E-03
  24       11XX      0.14482972866033E-03 -.17339396800597E-02 -.20743584748360E-01 -.17451691712046E+00 -.88766706950261E-01
  25       11YY      -.99238008955577E-02 -.83662606677518E-02 -.19274855512156E-01 -.18094126510164E+00 -.55423184184938E-01
  26       11ZZ      0.31783279500240E-01 -.12386915246590E-01 -.44461678279324E-01 -.24690936020398E+00 -.12819023675340E+00
  27       11XY      -.98867557567513E-02 -.20866959532323E-02 0.18276577353955E-02 -.50079229658849E-02 0.21451939322863E-01
  28       11XZ      -.18448046549133E-01 -.34058570481453E-02 -.12049029649305E-02 -.84383503284989E-02 -.33982084744684E-01
  29       11YZ      -.32769358615876E-01 -.11503017561143E-03 -.15967379762546E-02 -.21010830380815E-01 -.18609203922809E-01
  30       12XX      0.28911366327753E-01 -.95088083541217E-01 -.10911467550208E+00 -.12858861111694E+01 -.55644842158333E+00
  31       12YY      0.11096400673918E+00 -.87767593308750E-01 -.15696715870319E+00 -.12898103472341E+01 -.21354939282888E+00
  32       12ZZ      -.11976381960749E+00 -.17502337184950E+00 -.60212853432468E-01 -.13799244585636E+01 -.11015169395309E+01
  33       12XY      0.50120251467558E-01 0.25605038352432E-01 -.71573824224374E-02 -.85313700150286E-02 0.20174030866156E+00
  34       12XZ      0.11242897894859E+00 0.15531754587376E-01 -.56157013005235E-01 -.11750944677896E-01 -.36366290639597E+00
  35       12YZ      0.19696567465106E+00 -.39356604270160E-01 -.83406352785071E-01 -.15638935491434E-01 -.21928175666341E+00
  36 2   C  1S       -.27404708839606E-02 -.17890108179384E-02 -.82822887589903E-02 -.14395531898387E-01 -.17969753451493E-01
  37        2S       0.81312059185111E-02 0.33978743732639E-03 0.18852066738444E-01 0.47140290354817E-01 0.39606733645750E-01
  38        3S       -.35641532771624E-01 -.82242251372498E-01 0.24171972980954E+00 0.46245768692164E+00 0.86483481252868E+00
  39        4S       0.10221372074780E+00 -.10439631255287E+01 0.62933794304138E-01 -.10828792611030E+01 -.52847995266051E+00
  40        5S       -.28581360430182E-01 -.33641952777745E+01 -.54797165717583E+00 -.26542447379679E+02 0.11376713935904E+02
  41        6PX      -.65404486466965E-01 0.96241429988277E-01 -.21487131497425E+00 0.15597203457200E-01 0.22123223239227E-01
  42        6PY      -.11258606713080E+00 -.52337258709799E-01 -.37688001328584E+00 0.46135849433052E-01 0.21678974631170E-01
  43        6PZ      0.46834919676719E-01 0.59307248449052E-02 0.14953872363928E+00 0.28088130011142E-01 0.56268940615109E-01
  44        7PX      0.10508142711484E-01 -.21236011240161E+00 -.66098178528503E-01 -.31626009045417E-01 0.34372014459947E-01
  45        7PY      0.14479347754263E-01 0.10600929391747E+00 -.12404298516035E+00 -.64903691325434E-01 0.19669229023995E-01
  46        7PZ      0.58795413025223E-02 -.33586615271594E-01 -.12934837100182E-01 -.29683447725815E+00 0.12460266464062E-01
  47        8PX      -.27133725670009E+00 -.16843823663583E+01 0.12159839064993E+00 0.10906905524612E+00 0.89321517817798E+00
  48        8PY      -.56392558326307E+00 0.82736959656172E+00 0.22203704397465E+00 0.19332040388829E+00 0.41497990829196E-01
  49        8PZ      0.25966113144951E+00 -.22389754002087E+00 0.12198290298712E+00 0.95324942298542E+00 0.12808648421277E+01
  50        9PX      -.14899431059889E+01 -.48809433748147E+01 0.10202730087153E+01 0.24634149393941E+00 -.14036125936212E+00
  51        9PY      -.27634218036183E+01 0.30844077607370E+01 0.19688714877814E+01 0.10682131454915E+01 -.34229529108804E+00
  52        9PZ      0.11318323259179E+01 0.10889509552262E+01 -.31573625889280E+00 0.43678907191967E+01 -.10642965325747E+01
  53       10XX      -.73248183455389E-03 0.68583159086733E-04 -.43118383522035E-02 0.26528007637729E-02 -.46782577970928E-02
  54       10YY      -.20896788696228E-02 -.61582729756947E-03 -.10389391553452E-01 0.38419501483739E-02 0.32891876028258E-03
  55       10ZZ      0.28546713936459E-02 0.17452778635755E-03 0.13466674639707E-01 -.78478982612140E-02 0.33011280733096E-02
  56       10XY      -.11702523608524E-02 -.17632989317915E-03 -.65312888109948E-02 0.75382744830958E-03 0.64603382801635E-02
  57       10XZ      -.25154065491904E-02 -.12620425685836E-03 -.14159439259135E-01 -.10137202837205E-02 0.31254055387462E-02
  58       10YZ      -.43503485364043E-02 0.46184416630555E-03 -.25600460472837E-01 -.33921981343925E-03 0.14314341019836E-03
  59       11XX      -.51498960622262E-02 -.66527857861247E-01 0.13098459007571E-01 0.34986669861401E-01 0.13053961966277E+00
  60       11YY      -.11333577718342E-01 0.14274571298871E-02 -.11543606565727E-02 0.59143626254384E-01 0.82542657600239E-01
  61       11ZZ      0.75262332199538E-02 0.74013813778635E-03 0.63322709029484E-01 0.10446894032024E+00 0.50655131115477E-01
  62       11XY      -.39174828496751E-02 -.41565194198989E-02 -.11530967200104E-01 0.27609257596091E-01 -.93041704594067E-01
  63       11XZ      -.14973634025503E-01 -.78899827619117E-01 -.16723248517833E-01 0.11708795512387E-01 -.72411753238771E-01
  64       11YZ      -.32698181741256E-01 0.51648598250858E-01 -.20748902727455E-01 0.52099117439896E-02 0.39800123932139E-01
  65       12XX      0.10214552963438E+00 -.43327016446259E+00 0.10918788583599E-01 0.61631228861654E+00 -.14504946947542E+00
  66       12YY      0.81790800176001E-01 -.29460008615444E+00 0.50512689557221E-01 0.62038144112279E+00 -.10045923902303E+01
  67       12ZZ      0.62574946236827E-02 -.30683559531515E+00 0.12215926012878E-01 0.34366922730502E+00 -.21759817644845E+01
  68       12XY      0.39877291619024E-01 0.20209181924068E-01 -.44153711677167E-01 0.14149934819848E-01 -.97852308182995E+00
  69       12XZ      0.39783774005667E-01 -.83996340905637E-01 -.11887568248497E-01 -.39004597850120E-01 -.54473830218639E+00
  70       12YZ      0.93462054952155E-01 0.64976904302196E-01 -.27774280271941E-01 -.85024816723747E-01 -.51759432762359E-01
  71 3   H  1S       -.88018728392073E-02 0.28267075580386E-01 -.32768591041278E-01 -.25293245016081E-01 -.52994859274702E-01
  72        2S       0.17107690029426E-01 0.55181659900084E+00 -.71432884535026E-01 0.13734099426079E+00 -.65806934889385E+00
  73        3S       -.25429181719771E+00 0.64511545766677E+01 -.17953264116942E+00 0.45716075883646E+00 0.23107303693029E+01
  74        4S       -.16599087327552E+00 0.10431918851113E+02 -.55306729609492E-01 -.43221251438492E+00 -.39131349550003E+00
  75        5PX      -.25867586272670E-02 -.64869448063842E-02 -.94610623966882E-02 -.34481259640140E-02 -.30237276038434E-02
  76        5PY      -.38398584664648E-02 0.19651355357976E-02 -.15440121498223E-01 0.20461353766560E-02 0.18071153120110E-02
  77        5PZ      0.13254031956219E-02 -.34913207263522E-02 0.48014347893395E-02 -.51538065517845E-02 -.27699820785730E-03
  78        6PX      -.13483079317581E-01 -.13709740773841E+00 -.68846938308371E-02 -.37232139848068E-01 0.37954725868966E-01
  79        6PY      -.10164563351295E-01 0.46959996061589E-01 -.41349912013321E-01 0.13851081278237E-01 0.53432588286649E-01
  80        6PZ      0.29429062457201E-03 -.79598895247790E-01 0.17328966758117E-01 -.29700308392997E-01 0.16667980924433E+00
  81        7PX      0.24963099668359E-01 -.66536161309651E+00 -.23857396231732E+00 -.14336924646343E+00 -.28981513018137E+01
  82        7PY      -.30809036919241E-01 0.22185725102818E-01 -.33320437121440E+00 0.24803619620207E-01 0.13325828509637E+01
  83        7PZ      0.22044453116350E-01 -.86346515195584E+00 0.44460082271203E-01 -.31155383363376E+00 -.77401590713787E+00
  84 4   H  1S       -.85274245785226E-02 -.17934558726618E-01 -.35171994690832E-01 -.28979147655389E-01 -.60220880038713E-01
  85        2S       0.32116091861750E-01 -.38930745271541E+00 -.82367592920830E-01 0.17217369634647E+00 -.82018716047888E+00
  86        3S       -.10482804831604E+00 -.29793603011808E+01 -.28595035556521E+00 0.31469087847659E+00 -.87103131627571E+00
  87        4S       0.12031372172964E+00 -.10204204430849E+02 -.27076574806872E+00 -.14694768448997E+01 -.20545576457452E+00
  88        5PX      -.19240773801642E-02 -.31779095987025E-02 -.83495339448915E-02 0.29766462906822E-02 0.21628397317592E-02
  89        5PY      -.46627641912224E-02 0.35294471422141E-02 -.16482524690774E-01 -.19980308116535E-02 -.16602644151957E-02
  90        5PZ      0.12626278609981E-02 0.40741460690116E-02 0.43511409694840E-02 -.64647884986912E-02 -.18204978401546E-02
  91        6PX      0.19436092033970E-02 -.72176729708814E-01 -.36480650917937E-01 0.32096351706756E-01 0.15525815524700E-01
  92        6PY      -.16096258959058E-01 0.66051962022065E-01 -.35155381273852E-01 -.29919752166542E-01 0.82947748145638E-01
  93        6PZ      -.46244908598865E-02 0.73618444915811E-01 0.21700595669360E-01 -.46853516770059E-01 0.18058303697927E+00
  94        7PX      0.33044637982544E-01 0.11445835266248E-01 -.24991846695824E+00 0.61663711733509E-01 0.20147853062758E+01
  95        7PY      0.97349664080736E-01 0.14289783604727E+00 -.53795749851463E+00 -.72296609065789E-01 -.11019338238875E+01
  96        7PZ      -.35693803980085E-01 0.42004041929371E+00 0.11560372950920E+00 -.30836936491788E+00 -.50752604350785E+00
                          21        22        23        24        25
                           V         V         V         V         V
     Eigenvalues --  0.76254917577290E-01 0.88406800870446E-01 0.90787746506048E-01 0.92038394048534E-01 0.94294975136553E-01
   1 1   C  1S       0.10174115555652E-03 0.44818625760354E-02 -.21006278199980E-03 -.85765469259726E-02 0.52130480925181E-02
   2        2S       -.31335202644743E-03 -.21879278159837E-01 -.64327265173433E-03 0.30365339859946E-01 -.16562712238957E-01
   3        3S       -.69024076304273E-02 0.57729670519638E+00 -.27192986896655E+00 0.53228232302917E+00 -.32815589493029E+00
   4        4S       -.28146818153100E+00 -.12543164627177E+02 -.51113328209044E+00 0.69792215304560E+01 -.30301372591541E+01
   5        5S       0.14607240304619E+00 0.13616997930740E+02 -.79346928427742E+00 0.12550862307574E+02 -.12762998993250E+02
   6        6PX      0.27963263054762E-02 -.87426635224433E-02 -.63701644856493E-01 -.74080937853668E-01 -.87184840250892E-01
   7        6PY      0.26432312672179E-01 0.49774325356434E-01 -.11643348055919E+00 0.57787449304785E-01 0.31591519073300E-01
   8        6PZ      -.55025972860485E-02 0.92946978213994E-01 0.40304693579517E-01 0.17147981332220E-01 -.25624145822978E-01
   9        7PX      -.16833914484755E-01 0.50866387876870E-01 -.76914133485294E-01 0.80480037120899E-01 0.30013977728080E-01
  10        7PY      0.26117684669453E-02 0.92669606351113E-01 -.13049327376199E+00 -.68580694704633E-02 -.40802080227989E-01
  11        7PZ      0.17452514023797E-02 0.40501344131836E+00 -.98074318381250E-01 0.18137121215127E+00 -.12445383214369E+00
  12        8PX      -.11236474500030E+01 -.10729998897654E+01 0.31098260270498E+00 0.28771954478510E+01 0.15919357471311E+00
  13        8PY      -.10625791123177E+00 -.10794415586607E+01 0.86893219501181E+00 -.12456535562833E+01 0.81953973238073E-02
  14        8PZ      0.38622188073784E+00 -.54556573694899E+01 -.69481619655811E+00 0.18261030528768E+01 -.36497673675281E+00
  15        9PX      -.15516920241414E+00 -.10849048196147E+00 -.43750557856933E+00 -.14624336945878E+01 -.33049182221483E+01
  16        9PY      0.27941760653125E+00 0.37660313752837E+00 -.86371094619324E+00 0.20630658367981E+01 0.90285991572927E+00
  17        9PZ      -.43264938403782E-01 0.16170632123938E+01 0.11875779978261E+00 0.35380029939685E+01 -.27148148664990E+01
  18       10XX      0.38338368091326E-03 0.34637003169496E-02 0.18120841238958E-02 -.79037870747773E-03 0.17007314215590E-02
  19       10YY      -.41475650181873E-03 0.26943070855654E-02 0.62777176860142E-02 -.46177385606681E-02 0.16497594897310E-03
  20       10ZZ      0.30809402318154E-04 -.60923366442481E-02 -.84081391716215E-02 0.19916265990773E-02 0.94885117038020E-03
  21       10XY      0.54661075495690E-04 0.23802485201163E-03 0.40169532306394E-02 -.12898775030636E-02 0.17199786518247E-02
  22       10XZ      0.42989910509034E-03 -.74139880371191E-03 0.73791955804619E-02 0.53503733890727E-02 0.48326007482483E-02
  23       10YZ      -.64927957891446E-03 -.45282984543141E-02 0.13383985049038E-01 0.34893326277249E-03 -.32656761053504E-02
  24       11XX      -.17818048712099E-01 -.12917012202931E-01 -.27275430542093E-01 0.55322393295074E-01 -.18158331220221E-01
  25       11YY      0.19578227418696E-01 -.18986632002849E-01 -.37088322223374E-01 0.60272135933487E-01 -.23887535290979E-01
  26       11ZZ      0.18990643709249E-02 0.15027666037338E+00 -.33293904287792E-01 0.11280465880438E+00 -.88591854792009E-01
  27       11XY      -.13756888099198E-01 -.98870092062891E-02 -.10867983062266E-01 0.13493948679304E-01 -.95073667248205E-02
  28       11XZ      -.11647650985075E-02 0.18765487718896E-01 -.23472357928633E-01 0.17944428787311E-01 -.16316009236648E-01
  29       11YZ      0.44378889668666E-02 0.48331552822789E-01 -.40764945704384E-01 0.12771013398995E-02 -.90854712812213E-02
  30       12XX      -.25888116418248E+00 -.71093695311119E+00 -.18656225002776E-01 0.65185351561475E+00 -.41583190256589E+00
  31       12YY      0.18222179672873E+00 -.64940527822005E+00 0.36181487886702E-01 0.20587938250975E+00 -.32983449861805E+00
  32       12ZZ      0.15189169422482E+00 -.20443675121049E+01 -.31973308564852E+00 0.52203436996554E+00 -.15070480806258E+00
  33       12XY      -.22694453033374E+00 0.41944469592011E-01 0.90361263181782E-01 -.66467830964323E-01 0.13106557523624E+00
  34       12XZ      -.15237051168545E+00 -.27811926205892E+00 0.90881750187802E-01 0.63945154754816E+00 0.11344320900560E+00
[...]
  15        9PX      -.62665812648312E-01 -.31076537489165E-01 -.13784248536434E-01 0.88192624048322E-01 -.12681013332290E+00
  16        9PY      -.10314362273566E+00 0.39978901390006E-02 0.28787798698891E-01 0.17539785243686E+00 -.16171194557785E-01
  17        9PZ      -.51431921370593E+00 -.95381242069670E-02 0.83952112324268E-01 0.86369484581689E+00 0.73213832754672E-01
  18       10XX      -.43299323046277E+00 -.14082049272766E-01 0.64605145928726E-01 -.23896926949174E+01 -.52873926750578E+00
  19       10YY      -.20772283390923E+00 -.18561978098445E-01 0.26621540280728E+00 -.24029583282737E+01 -.50775541957740E+00
  20       10ZZ      -.54126425709568E+00 0.34263470948530E-01 -.14809591483151E+00 -.25693898953804E+01 -.53353564339423E-01
  21       10XY      0.78266981387627E-01 0.16974821892189E+00 -.23132515957871E-01 -.56522543220827E-02 0.24753405746480E-01
  22       10XZ      -.28685751429150E+00 0.35817559239360E+00 -.45369159240481E+00 -.17240071798069E-01 0.79060135400236E-01
  23       10YZ      0.23132110188647E-01 -.19061323344419E+00 0.16911347200526E+00 -.54539448942614E-01 0.13052475768425E+00
  24       11XX      0.10179777435965E+01 0.59186613301381E+00 0.42901369142764E+00 -.51414298928949E+01 -.18247327513205E+00
  25       11YY      0.98326409438892E+00 0.58766397905144E+00 0.16214888580596E+00 -.51000423823877E+01 -.31420512485404E+00
  26       11ZZ      -.25629077505152E+00 0.85194089602720E+00 0.76126423546222E-01 -.41951314962690E+01 0.19476768584948E+00
  27       11XY      -.52273188305583E-01 -.20331229550768E+00 -.15291859630635E-01 0.48843051260309E-01 -.11527509716233E+00
  28       11XZ      -.23816108860847E+00 -.27422037091015E+00 0.34549373131325E+00 0.14149993307125E+00 0.10933152661326E+00
  29       11YZ      -.33309526569907E+00 0.26217049304222E+00 -.30402132532351E+00 0.24478942434673E+00 0.11428442602365E+00
  30       12XX      0.12896652884634E+01 0.23971208874547E+00 0.59002080047829E-01 -.36811745511420E+01 0.19418945064958E+00
  31       12YY      0.14270524967894E+01 0.33642845272311E+00 0.16863835685747E+00 -.35865470689682E+01 0.18018344814929E+00
  32       12ZZ      0.17113102281966E+01 0.49851577444289E+00 0.20640936025533E+00 -.40073463627807E+01 -.12141621148603E+00
  33       12XY      0.58784846081795E-01 0.10595494164029E+00 0.14425779802921E-01 0.10233276164724E+00 0.70890463427676E-02
  34       12XZ      -.29121979514669E-01 0.11849183645624E+00 -.18980319306759E+00 -.64197597431042E-01 0.21633283494415E-01
  35       12YZ      0.21062783164662E+00 0.88780071930964E-02 0.15784680410971E+00 -.15884863575463E+00 -.49311959094313E-01
  36 2   C  1S       -.13095502593915E-01 -.72797944320899E-01 -.69385147140845E-01 0.23342239532005E+00 -.13740840516275E+01
  37        2S       0.55055554513641E+00 -.16447368723589E+01 -.16260419759943E+01 0.81665377039987E+00 -.47978346572128E+01
  38        3S       0.10118701786241E+02 -.85014037666137E+01 -.61352795288930E+01 -.61342991644965E+01 -.45782019960667E+01
  39        4S       0.24665905136293E+01 -.39621375737341E+01 -.34315866149000E+01 0.42682289511257E+00 -.96831331853115E+01
  40        5S       0.65024770064291E+01 -.82219608409099E+00 -.15352650067456E+01 -.10913013493170E+02 -.49459687909450E+01
  41        6PX      0.12495617651392E+00 0.63794125559742E+00 -.34173903003545E+00 -.40162058143914E-01 0.12560592141856E-01
  42        6PY      -.12594747657175E-01 -.17737973680544E+00 0.26554938052134E+00 -.88625922770295E-01 0.76168604518496E-01
  43        6PZ      0.81970330250618E-01 0.37816797388373E+00 0.87307299457727E-01 -.32926035676370E+00 0.24322480994208E+00
  44        7PX      0.18255677413591E+00 0.15727362496791E+01 -.21376004750592E+01 0.10896435241853E+00 -.29788829309236E+00
  45        7PY      -.67340351401200E+00 -.79349839723753E+00 0.63409365503227E+00 0.10512271762409E+01 0.25725694870362E+00
  46        7PZ      -.23621330074461E+01 0.76171496983255E+00 -.12582746802875E+01 0.35077685139878E+01 0.10538999518022E+01
  47        8PX      0.76173815061732E+00 -.46144857959343E+00 -.50155017361753E+00 -.41063531314013E+00 -.19822088039289E+01
  48        8PY      0.17121867847910E+00 -.11300213115348E+01 -.94651581193261E+00 -.32979928395782E+00 -.25429148811715E+01
  49        8PZ      0.25320981909303E+01 -.34148821921606E+01 -.29697881502565E+01 -.18256745799710E+01 -.90863276375445E+01
  50        9PX      -.24099375407227E-01 0.42239950803887E-02 -.18681007546254E-01 0.12600630157458E+00 0.10646700954242E+00
  51        9PY      -.15218227769207E+00 -.49019314606122E-01 -.21732313094255E-01 0.42308661722858E+00 0.36181523866896E-01
  52        9PZ      -.51007566575486E+00 -.13734199956091E+00 -.73300985252724E-01 0.14654335358797E+01 0.29092879617776E-01
  53       10XX      0.53719775542903E+00 0.10218243948362E+01 0.43498184648971E-01 0.28273372066549E+00 -.24955763534272E+01
  54       10YY      0.44753816895657E-01 -.97765294397518E-01 0.36536396279397E+00 0.40381895358833E+00 -.24984434596848E+01
  55       10ZZ      -.66448697214542E+00 0.66739823426965E+00 0.11730031007634E+01 0.89188125465889E+00 -.24645107339095E+01
  56       10XY      -.61361188027423E+00 -.36088765403631E+00 -.47939941399698E+00 0.10565530449008E+00 -.28620857081815E-01
  57       10XZ      -.31288150314417E+00 0.11114099558901E+01 -.86650899782605E+00 0.55888860014134E-01 -.21955352006345E-01
  58       10YZ      0.49262036995334E-01 -.24066308514918E+00 0.10532543726067E+01 0.13463557477010E+00 0.45058968761565E-01
  59       11XX      0.72743490349609E+00 -.30388493693139E+01 -.28776673811644E+01 0.14724843057177E+01 -.81902346383178E+01
  60       11YY      0.79123433820955E+00 -.25324066157828E+01 -.23439030474457E+01 0.12185931202172E+01 -.76368515478792E+01
  61       11ZZ      0.26042352816279E+01 -.40556543135099E+01 -.35075449055939E+01 -.39260010953156E+00 -.94388850318325E+01
  62       11XY      -.10120798718889E+00 0.59404085572749E+00 0.62190562666175E+00 -.28650392677605E+00 0.71656850694090E+00
  63       11XZ      0.23317290619066E-01 -.31386494475847E+00 0.42060928829036E-01 -.26581724481870E+00 -.85867842857069E-01
  64       11YZ      0.76148254671138E+00 -.65246475116551E+00 -.73297980563892E+00 -.42993728224018E+00 -.93066687380518E+00
  65       12XX      0.13098919318748E+01 -.33457511565644E+01 -.29752576653515E+01 0.60191788983836E+00 -.11742685755439E+02
  66       12YY      0.11496502844721E+01 -.33923121111375E+01 -.24823406944531E+01 0.52700504089965E+00 -.10691523741672E+02
  67       12ZZ      0.13490216112116E+01 -.29233936684227E+01 -.23671775450895E+01 0.99809700922524E+00 -.99315021258336E+01
  68       12XY      -.23735495208360E+00 0.27888869403854E+00 0.13882739270170E+00 -.72935773518747E-01 0.11673086289236E+01
  69       12XZ      -.21990597759040E-01 0.42879225288244E+00 -.36093708125605E+00 0.87689982019743E-01 0.33886449517290E+00
  70       12YZ      0.31080573259609E+00 -.12885301179955E+00 0.26457790744380E+00 0.14198498384965E+00 -.69111160835945E-01
  71 3   H  1S       -.63613532566555E+00 -.21032836378284E+01 0.63152536734058E+00 0.22097107084920E+00 -.10202482369856E+00
  72        2S       -.22749713928778E+01 0.35155786271315E+01 0.60124965704397E+01 -.46578211846841E+00 0.64399840075888E+01
  73        3S       -.59293024302415E+01 0.65469497972792E+01 0.84640632296517E+01 0.40535806546135E+01 0.26081937065896E+02
  74        4S       -.76867795592151E-01 0.16736286345611E+00 0.17039498721147E+00 -.14142144362180E+00 0.40861221304808E+00
  75        5PX      0.27212989316242E+00 0.12333055858161E+01 -.15681669752738E+00 -.17555545802173E-01 -.93607667463489E-01
  76        5PY      0.98454406958572E-01 -.44405709980484E+00 0.51915246002827E-01 -.18775630243533E-01 0.29686022168867E-01
  77        5PZ      0.71550736965257E+00 0.51901439219067E+00 -.74303941202707E-01 -.83605214170494E-01 -.64374537480527E-01
  78        6PX      0.67741870694165E+00 -.88961630098152E+00 -.15719169440409E+01 -.94560936266007E-01 -.14334049192610E+01
  79        6PY      -.39619885161832E+00 0.32112322776777E+00 0.50575893450588E+00 0.11772739978728E+00 0.44101274996742E+00
  80        6PZ      -.11108649150163E+00 -.28639577701355E+00 -.92640995244287E+00 0.13772810116315E+00 -.84764242899681E+00
  81        7PX      0.77506096058208E+00 -.86696744182961E+00 -.11258717300083E+01 -.66252783779028E+00 -.33180146875787E+01
  82        7PY      -.22184194368690E+00 0.92496540559272E-01 0.43062638646071E+00 0.71312479737198E-01 0.65545882609212E+00
  83        7PZ      0.49626504150709E+00 -.92373127678496E+00 -.49632306769078E+00 -.77352995988981E+00 -.27416353562218E+01
  84 4   H  1S       -.78342880232389E+00 0.33952723053364E+00 -.17485097422069E+01 0.67571802838835E-01 -.14598593541322E+00
  85        2S       -.22551376661095E+01 0.56707114283634E+01 0.44468906612869E+01 -.10255943093710E+01 0.67461826737268E+01
  86        3S       -.56445072406808E+01 0.93715154931025E+01 0.50677575242772E+01 0.32334260758220E+01 0.26372018418249E+02
  87        4S       0.49656492043569E-01 0.15527665106548E+00 0.94175634019938E-01 -.44090736554384E+00 0.36506957017347E+00
  88        5PX      -.45339770935889E-01 -.24661935148882E-01 -.81651727486865E+00 -.38829260213653E-01 0.33349289357662E-01
  89        5PY      0.26985410870289E+00 -.60484143872578E-03 0.75422757113302E+00 -.48157706313599E-02 -.25910576223650E-01
  90        5PZ      0.64082947947594E+00 -.22531892750341E-01 0.67561226274711E+00 -.87847689170278E-01 -.22994204407494E-01
  91        6PX      -.69309347857375E+00 0.98809882593663E+00 0.95916145764504E+00 0.64311662034381E-01 0.10811119565255E+01
  92        6PY      0.38552778790681E+00 -.10109047254252E+01 -.81936360521573E+00 0.10414407592611E+00 -.10530220370782E+01
  93        6PZ      -.12950168051680E+00 -.11752252640458E+01 -.54915193675966E+00 0.39531047196982E+00 -.10483056178371E+01
  94        7PX      -.48232935728708E+00 0.88092990713548E+00 0.27137202749078E+00 0.25651554032889E+00 0.18413347383247E+01
  95        7PY      0.50669503155566E+00 -.84789152171316E+00 -.48318602364487E+00 -.44831963294942E+00 -.24576125395442E+01
  96        7PZ      0.57340870476609E+00 -.91482328687366E+00 -.78827326579213E+00 -.80443901010896E+00 -.33797634018050E+01
          Condensed to atoms (all electrons):
              1          2          3          4
     1  C    6.160876   0.120493  -0.430669  -0.151542
     2  C    0.120493   5.541856   0.454860   0.184600
     3  H   -0.430669   0.454860   1.321411  -0.313649
     4  H   -0.151542   0.184600  -0.313649   1.247672
 Mulliken atomic charges:
              1
     1  C    0.300841
     2  C   -0.301809
     3  H   -0.031952
     4  H    0.032919
 Sum of Mulliken atomic charges =  -0.00000
 Mulliken charges with hydrogens summed into heavy atoms:
              1
     1  C    0.300841
     2  C   -0.300841
 Sum of Mulliken charges with hydrogens summed into heavy atoms =  -0.00000
 Electronic spatial extent (au):  <R**2>=            100.4433
 Charge=             -0.0000 electrons
 Dipole moment (field-independent basis, Debye):
    X=              0.3430    Y=              0.7219    Z=              2.5155  Tot=              2.6394
 Quadrupole moment (field-independent basis, Debye-Ang):
   XX=            -11.7155   YY=            -13.6831   ZZ=             -9.7817
   XY=             -1.6096   XZ=              0.6427   YZ=              1.2473
 Traceless Quadrupole moment (field-independent basis, Debye-Ang):
   XX=              0.0113   YY=             -1.9563   ZZ=              1.9451
   XY=             -1.6096   XZ=              0.6427   YZ=              1.2473
 Octapole moment (field-independent basis, Debye-Ang**2):
  XXX=             -1.1070  YYY=             -3.3456  ZZZ=            -19.5521  XYY=             -1.4814
  XXY=             -1.2187  XXZ=             -7.1940  XZZ=              0.3903  YZZ=              2.3712
  YYZ=             -9.0336  XYZ=             -1.9233
 Hexadecapole moment (field-independent basis, Debye-Ang**3):
 XXXX=            -21.1991 YYYY=            -24.0384 ZZZZ=            -87.9069 XXXY=             -0.6966
 XXXZ=             -1.4510 YYYX=             -0.7701 YYYZ=             -7.3165 ZZZX=             -2.8223
 ZZZY=             -0.9919 XXYY=             -7.6305 XXZZ=            -16.0212 YYZZ=            -19.2809
 XXYZ=             -2.5996 YYXZ=             -2.9975 ZZXY=             -3.9394
 N-N= 2.228556880835D+01 E-N=-2.229223226792D+02  KE= 7.615468631199D+01
 Orbital energies and kinetic energies (alpha):
                                 1                 2
   1         O       -.10385221685192E+02 0.15945167802196E+02
   2         O       -.10346250384397E+02 0.15930300493341E+02
   3         O       -.86696851474477E+00 0.15956627102847E+01
   4         O       -.62208892487564E+00 0.12626793545423E+01
   5         O       -.51201342336731E+00 0.88575129131872E+00
   6         O       -.39435783792040E+00 0.14009975126196E+01
   7         O       -.37729761020339E+00 0.10567839916903E+01
   8         V       -.44336791105585E-01 0.10320502805083E+01
   9         V       0.78201325370222E-02 0.21969500231709E-01
  10         V       0.12696653062142E-01 0.14477130167811E-01
  11         V       0.19790652559081E-01 0.21129988585484E-01
  12         V       0.25042248298069E-01 0.35015315823617E-01
  13         V       0.33995491659466E-01 0.71889473996134E-01
  14         V       0.36044512546756E-01 0.68460964800113E-01
  15         V       0.37229443667495E-01 0.43550808078586E-01
  16         V       0.38246768936222E-01 0.83354144152696E-01
  17         V       0.42365378226768E-01 0.57692878071632E-01
  18         V       0.57099204399065E-01 0.85426026270221E+00
  19         V       0.62317395530552E-01 0.94348196431026E-01
  20         V       0.72416311549811E-01 0.10063781810555E+00
  21         V       0.76254917577290E-01 0.79112544351084E-01
  22         V       0.88406800870446E-01 0.25926693549608E+00
  23         V       0.90787746506048E-01 0.24455720089081E+00
  24         V       0.92038394048534E-01 0.12170254510685E+00
  25         V       0.94294975136553E-01 0.12997030801860E+00
  26         V       0.10206941333770E+00 0.14300899725778E+00
  27         V       0.11854040246694E+00 0.15471003598593E+00
  28         V       0.14313784768839E+00 0.33027473562213E+00
  29         V       0.15663719400711E+00 0.22128243595645E+00
  30         V       0.15993115834336E+00 0.33919160890523E+00
  31         V       0.17093124655485E+00 0.24469225540547E+00
  32         V       0.17455805901584E+00 0.23717900695290E+00
  33         V       0.17503756575778E+00 0.25109232443605E+00
  34         V       0.17988532143577E+00 0.25880056659625E+00
  35         V       0.19041401148255E+00 0.20299211244949E+00
  36         V       0.19752685749449E+00 0.34452158212325E+00
  37         V       0.20027671067804E+00 0.22911447610005E+00
  38         V       0.20369834898753E+00 0.29153869172243E+00
  39         V       0.21711828008601E+00 0.55032244765885E+00
  40         V       0.21757280232329E+00 0.41376816219556E+00
  41         V       0.23354116509763E+00 0.26133078852350E+00
  42         V       0.24176269852269E+00 0.30832296879863E+00
  43         V       0.24446773441947E+00 0.30682704254796E+00
  44         V       0.25015896959090E+00 0.38810346143376E+00
  45         V       0.30073610457402E+00 0.66921090923671E+00
  46         V       0.33119975630722E+00 0.58862153777426E+00
  47         V       0.34303905454035E+00 0.87595554186516E+00
  48         V       0.34949012339086E+00 0.49745359058506E+00
  49         V       0.40867828523020E+00 0.86034988647194E+00
  50         V       0.42354704531231E+00 0.58440941715325E+00
  51         V       0.44159052006303E+00 0.65399855475103E+00
  52         V       0.46730492209273E+00 0.72259631060311E+00
  53         V       0.49026779060277E+00 0.69207028674210E+00
  54         V       0.51088739883315E+00 0.64159925941670E+00
  55         V       0.51209986666461E+00 0.78828937316145E+00
  56         V       0.57228284960052E+00 0.81897423785846E+00
  57         V       0.57458764506928E+00 0.77354905457411E+00
  58         V       0.60278087938078E+00 0.88567384146775E+00
  59         V       0.60877882401452E+00 0.94726825119639E+00
  60         V       0.62797940524542E+00 0.11259313413514E+01
  61         V       0.66485563904130E+00 0.13644137733934E+01
  62         V       0.67765249951097E+00 0.89640707217503E+00
  63         V       0.69065733191592E+00 0.11073130817555E+01
  64         V       0.70538894586665E+00 0.11891167823998E+01
  65         V       0.71569517546183E+00 0.13458943625163E+01
  66         V       0.73546736422118E+00 0.15694984275694E+01
  67         V       0.78102647396893E+00 0.18866577476036E+01
  68         V       0.85506076623155E+00 0.13505227680489E+01
  69         V       0.90127322666246E+00 0.17476999140095E+01
  70         V       0.90805030723786E+00 0.18718321319307E+01
  71         V       0.95982478522942E+00 0.18901568887962E+01
  72         V       0.10875857385188E+01 0.20859555666631E+01
  73         V       0.12069755028910E+01 0.22912059157748E+01
  74         V       0.13424154772054E+01 0.21720041461129E+01
  75         V       0.14113305645480E+01 0.21770347387871E+01
  76         V       0.14458846902032E+01 0.21680054603867E+01
  77         V       0.14634157045668E+01 0.21394053193527E+01
  78         V       0.15468592746094E+01 0.22596004665147E+01
  79         V       0.15770924870918E+01 0.23684395629477E+01
  80         V       0.16047079366019E+01 0.22611382808313E+01
  81         V       0.17087296271199E+01 0.24087063919272E+01
  82         V       0.17258584864667E+01 0.24665793043225E+01
  83         V       0.17306295465102E+01 0.24260698255394E+01
  84         V       0.17785368346890E+01 0.25830735857766E+01
  85         V       0.19741341212225E+01 0.27594672051841E+01
  86         V       0.19915817356815E+01 0.28178362541611E+01
  87         V       0.20624380583119E+01 0.29056692216930E+01
  88         V       0.20854556558292E+01 0.29982982665576E+01
  89         V       0.21281779739729E+01 0.36173215526009E+01
  90         V       0.23104594989926E+01 0.39016022246906E+01
  91         V       0.24448031341731E+01 0.37696212192277E+01
  92         V       0.25518176635416E+01 0.37640872074405E+01
  93         V       0.26534997258253E+01 0.39582474166387E+01
  94         V       0.51390060945477E+01 0.13165534204823E+02
  95         V       0.55977658006121E+01 0.14527458547246E+02
 Total kinetic energy from orbitals= 7.615468631199D+01
 No NMR shielding tensors so no spin-rotation constants.
 Leave Link  601 at Tue Jun 13 17:05:34 2023, MaxMem= 1966080000 cpu:       1.3
 (Enter /local/g09-source/g09/l9999.exe)

 Test job not archived.
 1\1\GINC-WUX01\SP\RwB97XD\Gen\C2H2\ISSLERK\13-Jun-2023\0\\#p wB97XD/GE
 N 6D Iop(6/7=3) Iop(9/40=14) scf(maxcyc=200,conver=7) nosym Guess(Read
 ,TCheck) GFInput\\Comment\\0,1\C,0,-0.037987328,-0.088977747,-0.007809
 871\C,0,0.1113713,0.225486663,1.295847001\H,0,1.126640846,-0.098968534
 ,1.871546287\H,0,-0.592028997,0.930670094,2.071927354\\Version=EM64L-G
 09RevA.02\HF=-77.2161367\RMSD=6.134e-08\Dipole=0.1349458,0.2840158,0.9
 896714\Quadrupole=0.0083927,-1.4544983,1.4461055,-1.1967244,0.4778032,
 0.9273495\PG=C01 [X(C2H2)]\\@


 TIME IS IN FACT THE HERO OF THE PLOT. THE TIME
 WITH WHICH WE HAVE TO DEAL IS OF THE ORDER OF TWO
 BILLION YEARS...GIVEN SO MUCH TIME, THE "IMPOSSIBLE"
 BECOMES POSSIBLE, THE POSSIBLE PROBABLE, THE PROBABLE
 VIRTUALLY CERTAIN.  ONE HAS ONLY TO WAIT, TIME
 ITSELF PERFORMS THE MIRACLES.
 "ORIGIN OF LIFE" LECTURES, GEORGE WALD, 1954
 Job cpu time:  0 days  0 hours  0 minutes 47.9 seconds.
 File lengths (MBytes):  RWF=     10 Int=      0 D2E=      0 Chk=      1 Scr=      1
 Normal termination of Gaussian 09 at Tue Jun 13 17:05:34 2023.
