 Entering Gaussian System, Link 0=g09
 Input=an.in2
 Output=an.log2
 Initial command:
 /local/g09-source/g09/l1.exe /scratch/1236642/TRAJ_10/Gau-40109.inp -scrdir=/scratch/1236642/TRAJ_10/
 Entering Link 1 = /local/g09-source/g09/l1.exe PID=     40111.
  
 Copyright (c) 1988,1990,1992,1993,1995,1998,2003,2009, Gaussian, Inc.
                  All Rights Reserved.
  
 This is part of the Gaussian(R) 09 program.  It is based on
 the Gaussian(R) 03 system (copyright 2003, Gaussian, Inc.),
 the Gaussian(R) 98 system (copyright 1998, Gaussian, Inc.),
 the Gaussian(R) 94 system (copyright 1995, Gaussian, Inc.),
 the Gaussian 92(TM) system (copyright 1992, Gaussian, Inc.),
 the Gaussian 90(TM) system (copyright 1990, Gaussian, Inc.),
 the Gaussian 88(TM) system (copyright 1988, Gaussian, Inc.),
 the Gaussian 86(TM) system (copyright 1986, Carnegie Mellon
 University), and the Gaussian 82(TM) system (copyright 1983,
 Carnegie Mellon University). Gaussian is a federally registered
 trademark of Gaussian, Inc.
  
 This software contains proprietary and confidential information,
 including trade secrets, belonging to Gaussian, Inc.
  
 This software is provided under written license and may be
 used, copied, transmitted, or stored only in accord with that
 written license.
  
 The following legend is applicable only to US Government
 contracts under FAR:
  
                    RESTRICTED RIGHTS LEGEND
  
 Use, reproduction and disclosure by the US Government is
 subject to restrictions as set forth in subparagraphs (a)
 and (c) of the Commercial Computer Software - Restricted
 Rights clause in FAR 52.227-19.
  
 Gaussian, Inc.
 340 Quinnipiac St., Bldg. 40, Wallingford CT 06492
  
  
 ---------------------------------------------------------------
 Warning -- This program may not be used in any manner that
 competes with the business of Gaussian, Inc. or will provide
 assistance to any competitor of Gaussian, Inc.  The licensee
 of this program is prohibited from giving any competitor of
 Gaussian, Inc. access to this program.  By using this program,
 the user acknowledges that Gaussian, Inc. is engaged in the
 business of creating and licensing software in the field of
 computational chemistry and represents and warrants to the
 licensee that it is not a competitor of Gaussian, Inc. and that
 it will not use this program in any manner prohibited above.
 ---------------------------------------------------------------
  

 Cite this work as:
 Gaussian 09, Revision A.02,
 M. J. Frisch, G. W. Trucks, H. B. Schlegel, G. E. Scuseria, 
 M. A. Robb, J. R. Cheeseman, G. Scalmani, V. Barone, B. Mennucci, 
 G. A. Petersson, H. Nakatsuji, M. Caricato, X. Li, H. P. Hratchian, 
 A. F. Izmaylov, J. Bloino, G. Zheng, J. L. Sonnenberg, M. Hada, 
 M. Ehara, K. Toyota, R. Fukuda, J. Hasegawa, M. Ishida, T. Nakajima, 
 Y. Honda, O. Kitao, H. Nakai, T. Vreven, J. A. Montgomery, Jr., 
 J. E. Peralta, F. Ogliaro, M. Bearpark, J. J. Heyd, E. Brothers, 
 K. N. Kudin, V. N. Staroverov, R. Kobayashi, J. Normand, 
 K. Raghavachari, A. Rendell, J. C. Burant, S. S. Iyengar, J. Tomasi, 
 M. Cossi, N. Rega, J. M. Millam, M. Klene, J. E. Knox, J. B. Cross, 
 V. Bakken, C. Adamo, J. Jaramillo, R. Gomperts, R. E. Stratmann, 
 O. Yazyev, A. J. Austin, R. Cammi, C. Pomelli, J. W. Ochterski, 
 R. L. Martin, K. Morokuma, V. G. Zakrzewski, G. A. Voth, 
 P. Salvador, J. J. Dannenberg, S. Dapprich, A. D. Daniels, 
 O. Farkas, J. B. Foresman, J. V. Ortiz, J. Cioslowski, 
 and D. J. Fox, Gaussian, Inc., Wallingford CT, 2009.
 
 ******************************************
 Gaussian 09:  EM64L-G09RevA.02 11-Jun-2009
                 4-Nov-2022 
 ******************************************
 %Chk=an.chk
 %Nproc=10
 Will use up to   10 processors via shared memory.
 %Mem=25000Mb
 ----------------------------------------------------------------------
 #p wB97XD/GEN 6D Iop(6/7=3) Iop(9/40=14) scf(maxcyc=200,conver=8) nosy
 m Guess(Read,TCheck) GFInput Force
 ----------------------------------------------------------------------
 1/10=7,30=1,38=1/1,3;
 2/12=2,15=1,17=6,18=5,40=1/2;
 3/5=7,8=2,11=2,16=1,24=10,25=1,30=1,71=1,74=-58/1,2,3;
 4/5=102/1;
 5/5=2,6=8,7=200/2;
 6/7=3,8=2,9=2,10=2,28=1/1;
 7/29=1,30=1/1,2,3,16;
 1/10=7,30=1/3;
 99//99;
 Leave Link    1 at Fri Nov  4 21:10:55 2022, MaxMem= 3276800000 cpu:       0.5
 (Enter /local/g09-source/g09/l101.exe)
 -------
 Comment
 -------
 Symbolic Z-matrix:
 Charge = -1 Multiplicity = 2
 C                    -5.05179   0.47131   0.81159 
 C                    -3.76003   1.21043   0.88666 
 N                    -5.12908  -0.71819   1.73986 
 H                    -6.04986   1.02341   1.11845 
 H                    -5.12066  -0.02898  -0.26257 
 O                    -6.30678  -1.12037   2.00389 
 O                    -4.06402  -1.57808   1.90462 
 C                    -3.2659    1.60395   2.4358 
 H                    -2.98731   0.59653   0.31447 
 H                    -3.81349   2.08838   0.19513 
 H                    -3.14899   0.69242   3.03377 
 H                    -2.54643   2.37582   2.40652 
 H                    -4.1198    2.04617   2.73432 
 
 NAtoms=     13 NQM=     13 NQMF=      0 NMic=      0 NMicF=      0 NTot=     13.
                    Isotopes and Nuclear Properties:
 (Nuclear quadrupole moments (NQMom) in fm**2, nuclear magnetic moments (NMagM)
  in nuclear magnetons)

  Atom         1           2           3           4           5           6           7           8           9          10
 IAtWgt=          12          12          14           1           1          16          16          12           1           1
 AtmWgt=  12.0000000  12.0000000  14.0030740   1.0078250   1.0078250  15.9949146  15.9949146  12.0000000   1.0078250   1.0078250
 NucSpn=           0           0           2           1           1           0           0           0           1           1
 AtZEff=   0.0000000   0.0000000   0.0000000   0.0000000   0.0000000   0.0000000   0.0000000   0.0000000   0.0000000   0.0000000
 NQMom=    0.0000000   0.0000000   2.0440000   0.0000000   0.0000000   0.0000000   0.0000000   0.0000000   0.0000000   0.0000000
 NMagM=    0.0000000   0.0000000   0.4037610   2.7928460   2.7928460   0.0000000   0.0000000   0.0000000   2.7928460   2.7928460

  Atom        11          12          13
 IAtWgt=           1           1           1
 AtmWgt=   1.0078250   1.0078250   1.0078250
 NucSpn=           1           1           1
 AtZEff=   0.0000000   0.0000000   0.0000000
 NQMom=    0.0000000   0.0000000   0.0000000
 NMagM=    2.7928460   2.7928460   2.7928460
 Leave Link  101 at Fri Nov  4 21:10:56 2022, MaxMem= 3276800000 cpu:       1.5
 (Enter /local/g09-source/g09/l103.exe)

 GradGradGradGradGradGradGradGradGradGradGradGradGradGradGradGradGradGrad
 Berny optimization.
 Initialization pass.
 Trust Radius=3.00D-01 FncErr=1.00D-07 GrdErr=1.00D-07
 Number of steps in this run=   2 maximum allowed number of steps=   2.
 GradGradGradGradGradGradGradGradGradGradGradGradGradGradGradGradGradGrad

 Leave Link  103 at Fri Nov  4 21:10:56 2022, MaxMem= 3276800000 cpu:       0.1
 (Enter /local/g09-source/g09/l202.exe)
                          Input orientation:                          
 ---------------------------------------------------------------------
 Center     Atomic      Atomic             Coordinates (Angstroms)
 Number     Number       Type             X           Y           Z
 ---------------------------------------------------------------------
      1          6           0       -5.051791    0.471308    0.811591
      2          6           0       -3.760025    1.210425    0.886662
      3          7           0       -5.129081   -0.718195    1.739860
      4          1           0       -6.049857    1.023407    1.118451
      5          1           0       -5.120659   -0.028978   -0.262568
      6          8           0       -6.306784   -1.120372    2.003895
      7          8           0       -4.064017   -1.578085    1.904625
      8          6           0       -3.265900    1.603953    2.435795
      9          1           0       -2.987308    0.596532    0.314473
     10          1           0       -3.813488    2.088380    0.195126
     11          1           0       -3.148988    0.692422    3.033771
     12          1           0       -2.546432    2.375822    2.406516
     13          1           0       -4.119796    2.046167    2.734320
 ---------------------------------------------------------------------
                    Distance matrix (angstroms):
                    1          2          3          4          5
     1  C    0.000000
     2  C    1.490164   0.000000
     3  N    1.510818   2.514326   0.000000
     4  H    1.181149   2.309119   2.065709   0.000000
     5  H    1.186948   2.169833   2.117736   1.969299   0.000000
     6  O    2.351603   3.628609   1.272181   2.333627   2.781166
     7  O    2.523971   2.984032   1.378739   3.365916   2.865824
     8  C    2.666521   1.672972   3.057473   3.134142   3.658928
     9  H    2.127181   1.140771   2.889191   3.194966   2.296829
    10  H    2.127991   1.118877   3.463213   2.643490   2.530095
    11  H    2.933877   2.291674   2.754054   3.491854   3.908165
    12  H    3.528142   2.267358   4.085027   3.970154   4.419696
    13  H    2.654371   2.059549   3.106333   2.717021   3.780118
                    6          7          8          9         10
     6  O    0.000000
     7  O    2.291148   0.000000
     8  C    4.105541   3.323326   0.000000
     9  H    4.101320   2.901179   2.364851   0.000000
    10  H    4.447950   4.053161   2.356930   1.709511   0.000000
    11  H    3.783985   2.695821   1.096418   2.725787   3.232362
    12  H    5.150313   4.264779   1.055591   2.781526   2.564819
    13  H    3.917067   3.718429   1.006882   3.039677   2.557951
                   11         12         13
    11  H    0.000000
    12  H    1.894824   0.000000
    13  H    1.692563   1.640611   0.000000
 Symmetry turned off by external request.
 Stoichiometry    C3H7NO2(1-,2)
 Framework group  C1[X(C3H7NO2)]
 Deg. of freedom    33
 Full point group                 C1      NOp   1
 Rotational constants (GHZ):      5.8744410      2.3454367      2.0949397
 Leave Link  202 at Fri Nov  4 21:10:56 2022, MaxMem= 3276800000 cpu:       0.4
 (Enter /local/g09-source/g09/l301.exe)
 General basis read from cards:  (6D, 7F)
 Centers:   4  5  9 10 11 12 13
 S 3 1.0
     Exponent=  1.8731136960D+01 Coefficients=  3.3494604000D-02
     Exponent=  2.8253943650D+00 Coefficients=  2.3472695400D-01
     Exponent=  6.4012169200D-01 Coefficients=  8.1375732600D-01
 S 1 1.0
     Exponent=  1.6127775900D-01 Coefficients=  1.0000000000D+00
 P 1 1.0
     Exponent=  1.1000000000D+00 Coefficients=  1.0000000000D+00
 ****
 Centers:   1  2  8
 S 6 1.0
     Exponent=  3.0475248800D+03 Coefficients=  1.8347370000D-03
     Exponent=  4.5736951800D+02 Coefficients=  1.4037323000D-02
     Exponent=  1.0394868500D+02 Coefficients=  6.8842622000D-02
     Exponent=  2.9210155300D+01 Coefficients=  2.3218444300D-01
     Exponent=  9.2866629600D+00 Coefficients=  4.6794134800D-01
     Exponent=  3.1639269600D+00 Coefficients=  3.6231198500D-01
 S 3 1.0
     Exponent=  7.8682723500D+00 Coefficients= -1.1933242000D-01
     Exponent=  1.8812885400D+00 Coefficients= -1.6085415200D-01
     Exponent=  5.4424925800D-01 Coefficients=  1.1434564380D+00
 S 1 1.0
     Exponent=  1.6871447800D-01 Coefficients=  1.0000000000D+00
 S 1 1.0
     Exponent=  4.3800000000D-02 Coefficients=  1.0000000000D+00
 P 3 1.0
     Exponent=  7.8682723500D+00 Coefficients=  6.8999067000D-02
     Exponent=  1.8812885400D+00 Coefficients=  3.1642396100D-01
     Exponent=  5.4424925800D-01 Coefficients=  7.4430829100D-01
 P 1 1.0
     Exponent=  1.6871447800D-01 Coefficients=  1.0000000000D+00
 P 1 1.0
     Exponent=  4.3800000000D-02 Coefficients=  1.0000000000D+00
 D 1 1.0
     Exponent=  8.0000000000D-01 Coefficients=  1.0000000000D+00
 ****
 Centers:   3
 S 6 1.0
     Exponent=  4.1735114600D+03 Coefficients=  1.8347720000D-03
     Exponent=  6.2745791100D+02 Coefficients=  1.3994627000D-02
     Exponent=  1.4290209300D+02 Coefficients=  6.8586552000D-02
     Exponent=  4.0234329300D+01 Coefficients=  2.3224087300D-01
     Exponent=  1.2820212900D+01 Coefficients=  4.6906994800D-01
     Exponent=  4.3904370100D+00 Coefficients=  3.6045519900D-01
 S 3 1.0
     Exponent=  1.1626361860D+01 Coefficients= -1.1496118200D-01
     Exponent=  2.7162798070D+00 Coefficients= -1.6911747900D-01
     Exponent=  7.7221839700D-01 Coefficients=  1.1458519470D+00
 S 1 1.0
     Exponent=  2.1203149700D-01 Coefficients=  1.0000000000D+00
 S 1 1.0
     Exponent=  6.3900000000D-02 Coefficients=  1.0000000000D+00
 S 1 1.0
     Exponent=  1.8257143000D-02 Coefficients=  1.0000000000D+00
 S 1 1.0
     Exponent=  5.2163270000D-03 Coefficients=  1.0000000000D+00
 P 3 1.0
     Exponent=  1.1626361860D+01 Coefficients=  6.7579744000D-02
     Exponent=  2.7162798070D+00 Coefficients=  3.2390729600D-01
     Exponent=  7.7221839700D-01 Coefficients=  7.4089514000D-01
 P 1 1.0
     Exponent=  2.1203149700D-01 Coefficients=  1.0000000000D+00
 P 1 1.0
     Exponent=  6.3900000000D-02 Coefficients=  1.0000000000D+00
 P 1 1.0
     Exponent=  1.8257143000D-02 Coefficients=  1.0000000000D+00
 P 1 1.0
     Exponent=  5.2163270000D-03 Coefficients=  1.0000000000D+00
 D 1 1.0
     Exponent=  8.0000000000D-01 Coefficients=  1.0000000000D+00
 ****
 Centers:   6  7
 S 6 1.0
     Exponent=  5.4846716600D+03 Coefficients=  1.8310740000D-03
     Exponent=  8.2523494600D+02 Coefficients=  1.3950172000D-02
     Exponent=  1.8804695800D+02 Coefficients=  6.8445078000D-02
     Exponent=  5.2964500000D+01 Coefficients=  2.3271433600D-01
     Exponent=  1.6897570400D+01 Coefficients=  4.7019289800D-01
     Exponent=  5.7996353400D+00 Coefficients=  3.5852085300D-01
 S 3 1.0
     Exponent=  1.5539616250D+01 Coefficients= -1.1077755000D-01
     Exponent=  3.5999335860D+00 Coefficients= -1.4802626300D-01
     Exponent=  1.0137617500D+00 Coefficients=  1.1307670150D+00
 S 1 1.0
     Exponent=  2.7000582300D-01 Coefficients=  1.0000000000D+00
 S 1 1.0
     Exponent=  8.4500000000D-02 Coefficients=  1.0000000000D+00
 P 3 1.0
     Exponent=  1.5539616250D+01 Coefficients=  7.0874268000D-02
     Exponent=  3.5999335860D+00 Coefficients=  3.3975283900D-01
     Exponent=  1.0137617500D+00 Coefficients=  7.2715857700D-01
 P 1 1.0
     Exponent=  2.7000582300D-01 Coefficients=  1.0000000000D+00
 P 1 1.0
     Exponent=  8.4500000000D-02 Coefficients=  1.0000000000D+00
 D 1 1.0
     Exponent=  8.0000000000D-01 Coefficients=  1.0000000000D+00
 ****
 Ernie: Thresh=  0.10000D-02 Tol=  0.10000D-05 Strict=F.
 AO basis set in the form of general basis input (Overlap normalization):
      1 0
 S   6 1.00       0.000000000000
      0.3047524880D+04  0.1834737002D-02
      0.4573695180D+03  0.1403732301D-01
      0.1039486850D+03  0.6884262207D-01
      0.2921015530D+02  0.2321844432D+00
      0.9286662960D+01  0.4679413485D+00
      0.3163926960D+01  0.3623119854D+00
 S   3 1.00       0.000000000000
      0.7868272350D+01 -0.1193324200D+00
      0.1881288540D+01 -0.1608541520D+00
      0.5442492580D+00  0.1143456438D+01
 S   1 1.00       0.000000000000
      0.1687144780D+00  0.1000000000D+01
 S   1 1.00       0.000000000000
      0.4380000000D-01  0.1000000000D+01
 P   3 1.00       0.000000000000
      0.7868272350D+01  0.6899906698D-01
      0.1881288540D+01  0.3164239609D+00
      0.5442492580D+00  0.7443082908D+00
 P   1 1.00       0.000000000000
      0.1687144780D+00  0.1000000000D+01
 P   1 1.00       0.000000000000
      0.4380000000D-01  0.1000000000D+01
 D   1 1.00       0.000000000000
      0.8000000000D+00  0.1000000000D+01
 ****
      2 0
 S   6 1.00       0.000000000000
      0.3047524880D+04  0.1834737002D-02
      0.4573695180D+03  0.1403732301D-01
      0.1039486850D+03  0.6884262207D-01
      0.2921015530D+02  0.2321844432D+00
      0.9286662960D+01  0.4679413485D+00
      0.3163926960D+01  0.3623119854D+00
 S   3 1.00       0.000000000000
      0.7868272350D+01 -0.1193324200D+00
      0.1881288540D+01 -0.1608541520D+00
      0.5442492580D+00  0.1143456438D+01
 S   1 1.00       0.000000000000
      0.1687144780D+00  0.1000000000D+01
 S   1 1.00       0.000000000000
      0.4380000000D-01  0.1000000000D+01
 P   3 1.00       0.000000000000
      0.7868272350D+01  0.6899906698D-01
      0.1881288540D+01  0.3164239609D+00
      0.5442492580D+00  0.7443082908D+00
 P   1 1.00       0.000000000000
      0.1687144780D+00  0.1000000000D+01
 P   1 1.00       0.000000000000
      0.4380000000D-01  0.1000000000D+01
 D   1 1.00       0.000000000000
      0.8000000000D+00  0.1000000000D+01
 ****
      3 0
 S   6 1.00       0.000000000000
      0.4173511460D+04  0.1834772000D-02
      0.6274579110D+03  0.1399462700D-01
      0.1429020930D+03  0.6858655201D-01
      0.4023432930D+02  0.2322408730D+00
      0.1282021290D+02  0.4690699480D+00
      0.4390437010D+01  0.3604551990D+00
 S   3 1.00       0.000000000000
      0.1162636186D+02 -0.1149611820D+00
      0.2716279807D+01 -0.1691174791D+00
      0.7722183970D+00  0.1145851947D+01
 S   1 1.00       0.000000000000
      0.2120314970D+00  0.1000000000D+01
 S   1 1.00       0.000000000000
      0.6390000000D-01  0.1000000000D+01
 S   1 1.00       0.000000000000
      0.1825714300D-01  0.1000000000D+01
 S   1 1.00       0.000000000000
      0.5216327000D-02  0.1000000000D+01
 P   3 1.00       0.000000000000
      0.1162636186D+02  0.6757974397D-01
      0.2716279807D+01  0.3239072959D+00
      0.7722183970D+00  0.7408951397D+00
 P   1 1.00       0.000000000000
      0.2120314970D+00  0.1000000000D+01
 P   1 1.00       0.000000000000
      0.6390000000D-01  0.1000000000D+01
 P   1 1.00       0.000000000000
      0.1825714300D-01  0.1000000000D+01
 P   1 1.00       0.000000000000
      0.5216327000D-02  0.1000000000D+01
 D   1 1.00       0.000000000000
      0.8000000000D+00  0.1000000000D+01
 ****
      4 0
 S   3 1.00       0.000000000000
      0.1873113696D+02  0.3349460400D-01
      0.2825394365D+01  0.2347269540D+00
      0.6401216920D+00  0.8137573259D+00
 S   1 1.00       0.000000000000
      0.1612777590D+00  0.1000000000D+01
 P   1 1.00       0.000000000000
      0.1100000000D+01  0.1000000000D+01
 ****
      5 0
 S   3 1.00       0.000000000000
      0.1873113696D+02  0.3349460400D-01
      0.2825394365D+01  0.2347269540D+00
      0.6401216920D+00  0.8137573259D+00
 S   1 1.00       0.000000000000
      0.1612777590D+00  0.1000000000D+01
 P   1 1.00       0.000000000000
      0.1100000000D+01  0.1000000000D+01
 ****
      6 0
 S   6 1.00       0.000000000000
      0.5484671660D+04  0.1831074000D-02
      0.8252349460D+03  0.1395017200D-01
      0.1880469580D+03  0.6844507801D-01
      0.5296450000D+02  0.2327143360D+00
      0.1689757040D+02  0.4701928980D+00
      0.5799635340D+01  0.3585208530D+00
 S   3 1.00       0.000000000000
      0.1553961625D+02 -0.1107775501D+00
      0.3599933586D+01 -0.1480262631D+00
      0.1013761750D+01  0.1130767016D+01
 S   1 1.00       0.000000000000
      0.2700058230D+00  0.1000000000D+01
 S   1 1.00       0.000000000000
      0.8450000000D-01  0.1000000000D+01
 P   3 1.00       0.000000000000
      0.1553961625D+02  0.7087426804D-01
      0.3599933586D+01  0.3397528392D+00
      0.1013761750D+01  0.7271585774D+00
 P   1 1.00       0.000000000000
      0.2700058230D+00  0.1000000000D+01
 P   1 1.00       0.000000000000
      0.8450000000D-01  0.1000000000D+01
 D   1 1.00       0.000000000000
      0.8000000000D+00  0.1000000000D+01
 ****
      7 0
 S   6 1.00       0.000000000000
      0.5484671660D+04  0.1831074000D-02
      0.8252349460D+03  0.1395017200D-01
      0.1880469580D+03  0.6844507801D-01
      0.5296450000D+02  0.2327143360D+00
      0.1689757040D+02  0.4701928980D+00
      0.5799635340D+01  0.3585208530D+00
 S   3 1.00       0.000000000000
      0.1553961625D+02 -0.1107775501D+00
      0.3599933586D+01 -0.1480262631D+00
      0.1013761750D+01  0.1130767016D+01
 S   1 1.00       0.000000000000
      0.2700058230D+00  0.1000000000D+01
 S   1 1.00       0.000000000000
      0.8450000000D-01  0.1000000000D+01
 P   3 1.00       0.000000000000
      0.1553961625D+02  0.7087426804D-01
      0.3599933586D+01  0.3397528392D+00
      0.1013761750D+01  0.7271585774D+00
 P   1 1.00       0.000000000000
      0.2700058230D+00  0.1000000000D+01
 P   1 1.00       0.000000000000
      0.8450000000D-01  0.1000000000D+01
 D   1 1.00       0.000000000000
      0.8000000000D+00  0.1000000000D+01
 ****
      8 0
 S   6 1.00       0.000000000000
      0.3047524880D+04  0.1834737002D-02
      0.4573695180D+03  0.1403732301D-01
      0.1039486850D+03  0.6884262207D-01
      0.2921015530D+02  0.2321844432D+00
      0.9286662960D+01  0.4679413485D+00
      0.3163926960D+01  0.3623119854D+00
 S   3 1.00       0.000000000000
      0.7868272350D+01 -0.1193324200D+00
      0.1881288540D+01 -0.1608541520D+00
      0.5442492580D+00  0.1143456438D+01
 S   1 1.00       0.000000000000
      0.1687144780D+00  0.1000000000D+01
 S   1 1.00       0.000000000000
      0.4380000000D-01  0.1000000000D+01
 P   3 1.00       0.000000000000
      0.7868272350D+01  0.6899906698D-01
      0.1881288540D+01  0.3164239609D+00
      0.5442492580D+00  0.7443082908D+00
 P   1 1.00       0.000000000000
      0.1687144780D+00  0.1000000000D+01
 P   1 1.00       0.000000000000
      0.4380000000D-01  0.1000000000D+01
 D   1 1.00       0.000000000000
      0.8000000000D+00  0.1000000000D+01
 ****
      9 0
 S   3 1.00       0.000000000000
      0.1873113696D+02  0.3349460400D-01
      0.2825394365D+01  0.2347269540D+00
      0.6401216920D+00  0.8137573259D+00
 S   1 1.00       0.000000000000
      0.1612777590D+00  0.1000000000D+01
 P   1 1.00       0.000000000000
      0.1100000000D+01  0.1000000000D+01
 ****
     10 0
 S   3 1.00       0.000000000000
      0.1873113696D+02  0.3349460400D-01
      0.2825394365D+01  0.2347269540D+00
      0.6401216920D+00  0.8137573259D+00
 S   1 1.00       0.000000000000
      0.1612777590D+00  0.1000000000D+01
 P   1 1.00       0.000000000000
      0.1100000000D+01  0.1000000000D+01
 ****
     11 0
 S   3 1.00       0.000000000000
      0.1873113696D+02  0.3349460400D-01
      0.2825394365D+01  0.2347269540D+00
      0.6401216920D+00  0.8137573259D+00
 S   1 1.00       0.000000000000
      0.1612777590D+00  0.1000000000D+01
 P   1 1.00       0.000000000000
      0.1100000000D+01  0.1000000000D+01
 ****
     12 0
 S   3 1.00       0.000000000000
      0.1873113696D+02  0.3349460400D-01
      0.2825394365D+01  0.2347269540D+00
      0.6401216920D+00  0.8137573259D+00
 S   1 1.00       0.000000000000
      0.1612777590D+00  0.1000000000D+01
 P   1 1.00       0.000000000000
      0.1100000000D+01  0.1000000000D+01
 ****
     13 0
 S   3 1.00       0.000000000000
      0.1873113696D+02  0.3349460400D-01
      0.2825394365D+01  0.2347269540D+00
      0.6401216920D+00  0.8137573259D+00
 S   1 1.00       0.000000000000
      0.1612777590D+00  0.1000000000D+01
 P   1 1.00       0.000000000000
      0.1100000000D+01  0.1000000000D+01
 ****

 Integral buffers will be    131072 words long.
 Raffenetti 2 integral format.
 Two-electron integral symmetry is turned off.
   157 basis functions,   249 primitive gaussians,   157 cartesian basis functions
    25 alpha electrons       24 beta electrons
       nuclear repulsion energy       240.7802745616 Hartrees.
 IExCor= 4639 DFT=T Ex+Corr=wB97XD ExCW=0 ScaHFX=  1.000000
 ScaDFX=  1.000000  1.000000  1.000000  1.000000 ScalE2=  1.000000  1.000000
 IRadAn=      0 IRanWt=     -1 IRanGd=            0 ICorTp=0
  HFx wShort=  0.000000 wLong=  0.200000 cFull=  0.222036 cShort=  0.000000 cLong=  0.777964
  DFx wShort=  0.000000 wLong=  0.200000 cFull=  0.000000 cShort=  0.000000 cLong=  1.000000
 NAtoms=   13 NActive=   13 NUniq=   13 SFac= 7.50D-01 NAtFMM=   80 NAOKFM=F Big=F
 R6Disp: Dispersion energy =        -0.0058265339 Hartrees.
 Nuclear repulsion after empirical dispersion term =      240.7744480277 Hartrees.
 Leave Link  301 at Fri Nov  4 21:10:56 2022, MaxMem= 3276800000 cpu:       0.4
 (Enter /local/g09-source/g09/l302.exe)
 NPDir=0 NMtPBC=     1 NCelOv=     1 NCel=       1 NClECP=     1 NCelD=      1
         NCelK=      1 NCelE2=     1 NClLst=     1 CellRange=     0.0.
 One-electron integrals computed using PRISM.
 NBasis=   157 RedAO= T  NBF=   157
 NBsUse=   157 1.00D-06 NBFU=   157
 Precomputing XC quadrature grid using
 IXCGrd= 2 IRadAn=           0 IRanWt=          -1 IRanGd=           0 AccXCQ= 1.00D-10.
 NRdTot=     881 NPtTot=      113336 NUsed=      119685 NTot=      119717
 NSgBfM=   157   157   157   157   157 NAtAll=    13    13.
 Leave Link  302 at Fri Nov  4 21:10:56 2022, MaxMem= 3276800000 cpu:       2.1
 (Enter /local/g09-source/g09/l303.exe)
 DipDrv:  MaxL=1.
 Leave Link  303 at Fri Nov  4 21:10:56 2022, MaxMem= 3276800000 cpu:       0.5
 (Enter /local/g09-source/g09/l401.exe)
 Initial guess read from the checkpoint file:  an.chk
 B after Tr=     0.000446    0.000666    0.001516
         Rot=    1.000000   -0.000011    0.000081   -0.000027 Ang=   0.01 deg.
 Guess basis will be translated and rotated to current coordinates.
 Initial guess <Sx>= 0.0000 <Sy>= 0.0000 <Sz>= 0.5000 <S**2>= 0.7548 S= 0.5024
 Leave Link  401 at Fri Nov  4 21:10:57 2022, MaxMem= 3276800000 cpu:       4.4
 (Enter /local/g09-source/g09/l502.exe)
 UHF open shell SCF:
 Requested convergence on RMS density matrix=1.00D-08 within 200 cycles.
 Requested convergence on MAX density matrix=1.00D-06.
 Requested convergence on             energy=1.00D-06.
 No special actions if energy rises.
 Using DIIS extrapolation, IDIIS=  1040.
 Two-electron integral symmetry not used.
       119555 words used for storage of precomputed grid.
 IEnd=      238162 IEndB=      238162 NGot=  3276800000 MDV=  3276627045
 LenX=  3276627045 LenY=  3276601955
 Fock matrices will be formed incrementally for  20 cycles.

 Cycle   1  Pass 1  IDiag  1:
 FoFJK:  IHMeth= 1 ICntrl=     0 DoSepK=T KAlg= 1 I1Cent= 0 FoldK=F
 FoFCou: FMM=F IPFlag=           0 FMFlag=      100000 FMFlg1=           0
         NFxFlg=           0 DoJE=T BraDBF=F KetDBF=F FulRan=T
         Omega=  0.000000  0.000000  1.000000  0.000000  0.000000 ICntrl=     500 IOpCl=  0
         NMat0=    1 NMatS0=    1 NMatT0=    0 NMatD0=    1 NMtDS0=    0 NMtDT0=    0
         I1Cent=           0 NGrid=           0.
 Symmetry not used in FoFCou.
 E= -323.526137761652    
 DIIS: error= 3.08D-04 at cycle   1 NSaved=   1.
 NSaved= 1 IEnMin= 1 EnMin= -323.526137761652     IErMin= 1 ErrMin= 3.08D-04
 ErrMax= 3.08D-04 EMaxC= 1.00D-01 BMatC= 1.90D-04 BMatP= 1.90D-04
 IDIUse=3 WtCom= 9.97D-01 WtEn= 3.08D-03
 Coeff-Com:  0.100D+01
 Coeff-En:   0.100D+01
 Coeff:      0.100D+01
 Gap=     0.097 Goal=   None    Shift=    0.000
 Gap=     0.187 Goal=   None    Shift=    0.000
 RMSDP=1.30D-04 MaxDP=4.66D-03              OVMax= 2.73D-03

 Cycle   2  Pass 1  IDiag  1:
 RMSU=  1.10D-04    CP:  1.00D+00
 FoFJK:  IHMeth= 1 ICntrl=     0 DoSepK=T KAlg= 1 I1Cent= 0 FoldK=F
 E= -323.526207390053     Delta-E=       -0.000069628401 Rises=F Damp=F
 DIIS: error= 1.19D-04 at cycle   2 NSaved=   2.
 NSaved= 2 IEnMin= 2 EnMin= -323.526207390053     IErMin= 2 ErrMin= 1.19D-04
 ErrMax= 1.19D-04 EMaxC= 1.00D-01 BMatC= 2.79D-05 BMatP= 1.90D-04
 IDIUse=3 WtCom= 9.99D-01 WtEn= 1.19D-03
 Coeff-Com:  0.126D+00 0.874D+00
 Coeff-En:   0.000D+00 0.100D+01
 Coeff:      0.126D+00 0.874D+00
 Gap=     0.097 Goal=   None    Shift=    0.000
 Gap=     0.187 Goal=   None    Shift=    0.000
 RMSDP=5.31D-05 MaxDP=2.56D-03 DE=-6.96D-05 OVMax= 1.35D-03

 Cycle   3  Pass 1  IDiag  1:
 RMSU=  3.32D-05    CP:  1.00D+00  1.26D+00
 FoFJK:  IHMeth= 1 ICntrl=     0 DoSepK=T KAlg= 1 I1Cent= 0 FoldK=F
 E= -323.526214059443     Delta-E=       -0.000006669390 Rises=F Damp=F
 DIIS: error= 7.47D-05 at cycle   3 NSaved=   3.
 NSaved= 3 IEnMin= 3 EnMin= -323.526214059443     IErMin= 3 ErrMin= 7.47D-05
 ErrMax= 7.47D-05 EMaxC= 1.00D-01 BMatC= 9.65D-06 BMatP= 2.79D-05
 IDIUse=1 WtCom= 1.00D+00 WtEn= 0.00D+00
 Coeff-Com: -0.696D-01 0.349D+00 0.720D+00
 Coeff:     -0.696D-01 0.349D+00 0.720D+00
 Gap=     0.098 Goal=   None    Shift=    0.000
 Gap=     0.188 Goal=   None    Shift=    0.000
 RMSDP=3.21D-05 MaxDP=1.09D-03 DE=-6.67D-06 OVMax= 6.56D-04

 Cycle   4  Pass 1  IDiag  1:
 RMSU=  1.38D-05    CP:  1.00D+00  1.45D+00  1.19D+00
 FoFJK:  IHMeth= 1 ICntrl=     0 DoSepK=T KAlg= 1 I1Cent= 0 FoldK=F
 E= -323.526216779455     Delta-E=       -0.000002720013 Rises=F Damp=F
 DIIS: error= 2.37D-05 at cycle   4 NSaved=   4.
 NSaved= 4 IEnMin= 4 EnMin= -323.526216779455     IErMin= 4 ErrMin= 2.37D-05
 ErrMax= 2.37D-05 EMaxC= 1.00D-01 BMatC= 7.06D-07 BMatP= 9.65D-06
 IDIUse=1 WtCom= 1.00D+00 WtEn= 0.00D+00
 Coeff-Com: -0.299D-01 0.744D-01 0.250D+00 0.706D+00
 Coeff:     -0.299D-01 0.744D-01 0.250D+00 0.706D+00
 Gap=     0.097 Goal=   None    Shift=    0.000
 Gap=     0.188 Goal=   None    Shift=    0.000
 RMSDP=1.78D-05 MaxDP=1.22D-03 DE=-2.72D-06 OVMax= 4.92D-04

 Cycle   5  Pass 1  IDiag  1:
 RMSU=  6.34D-06    CP:  1.00D+00  1.53D+00  1.45D+00  1.23D+00
 FoFJK:  IHMeth= 1 ICntrl=     0 DoSepK=T KAlg= 1 I1Cent= 0 FoldK=F
 E= -323.526217029921     Delta-E=       -0.000000250466 Rises=F Damp=F
 DIIS: error= 1.61D-05 at cycle   5 NSaved=   5.
 NSaved= 5 IEnMin= 5 EnMin= -323.526217029921     IErMin= 5 ErrMin= 1.61D-05
 ErrMax= 1.61D-05 EMaxC= 1.00D-01 BMatC= 2.65D-07 BMatP= 7.06D-07
 IDIUse=1 WtCom= 1.00D+00 WtEn= 0.00D+00
 Coeff-Com:  0.144D-02-0.496D-01-0.449D-01 0.383D+00 0.710D+00
 Coeff:      0.144D-02-0.496D-01-0.449D-01 0.383D+00 0.710D+00
 Gap=     0.097 Goal=   None    Shift=    0.000
 Gap=     0.188 Goal=   None    Shift=    0.000
 RMSDP=1.62D-05 MaxDP=9.50D-04 DE=-2.50D-07 OVMax= 4.21D-04

 Cycle   6  Pass 1  IDiag  1:
 RMSU=  2.65D-06    CP:  1.00D+00  1.61D+00  1.65D+00  1.62D+00  1.49D+00
 FoFJK:  IHMeth= 1 ICntrl=     0 DoSepK=T KAlg= 1 I1Cent= 0 FoldK=F
 E= -323.526217164800     Delta-E=       -0.000000134879 Rises=F Damp=F
 DIIS: error= 7.59D-06 at cycle   6 NSaved=   6.
 NSaved= 6 IEnMin= 6 EnMin= -323.526217164800     IErMin= 6 ErrMin= 7.59D-06
 ErrMax= 7.59D-06 EMaxC= 1.00D-01 BMatC= 3.25D-08 BMatP= 2.65D-07
 IDIUse=1 WtCom= 1.00D+00 WtEn= 0.00D+00
 Coeff-Com:  0.497D-02-0.276D-01-0.523D-01 0.120D-01 0.205D+00 0.858D+00
 Coeff:      0.497D-02-0.276D-01-0.523D-01 0.120D-01 0.205D+00 0.858D+00
 Gap=     0.097 Goal=   None    Shift=    0.000
 Gap=     0.188 Goal=   None    Shift=    0.000
 RMSDP=1.15D-05 MaxDP=7.73D-04 DE=-1.35D-07 OVMax= 3.11D-04

 Cycle   7  Pass 1  IDiag  1:
 RMSU=  1.24D-06    CP:  1.00D+00  1.67D+00  1.80D+00  1.85D+00  2.02D+00
                    CP:  1.63D+00
 FoFJK:  IHMeth= 1 ICntrl=     0 DoSepK=T KAlg= 1 I1Cent= 0 FoldK=F
 E= -323.526217207862     Delta-E=       -0.000000043062 Rises=F Damp=F
 DIIS: error= 5.91D-06 at cycle   7 NSaved=   7.
 NSaved= 7 IEnMin= 7 EnMin= -323.526217207862     IErMin= 7 ErrMin= 5.91D-06
 ErrMax= 5.91D-06 EMaxC= 1.00D-01 BMatC= 1.18D-08 BMatP= 3.25D-08
 IDIUse=1 WtCom= 1.00D+00 WtEn= 0.00D+00
 Coeff-Com:  0.236D-02 0.167D-02-0.141D-01-0.114D+00-0.129D+00 0.397D+00
 Coeff-Com:  0.856D+00
 Coeff:      0.236D-02 0.167D-02-0.141D-01-0.114D+00-0.129D+00 0.397D+00
 Coeff:      0.856D+00
 Gap=     0.097 Goal=   None    Shift=    0.000
 Gap=     0.188 Goal=   None    Shift=    0.000
 RMSDP=9.12D-06 MaxDP=6.34D-04 DE=-4.31D-08 OVMax= 2.88D-04

 Cycle   8  Pass 1  IDiag  1:
 RMSU=  6.80D-07    CP:  1.00D+00  1.71D+00  1.91D+00  2.02D+00  2.48D+00
                    CP:  2.25D+00  1.50D+00
 FoFJK:  IHMeth= 1 ICntrl=     0 DoSepK=T KAlg= 1 I1Cent= 0 FoldK=F
 E= -323.526217229608     Delta-E=       -0.000000021746 Rises=F Damp=F
 DIIS: error= 2.83D-06 at cycle   8 NSaved=   8.
 NSaved= 8 IEnMin= 8 EnMin= -323.526217229608     IErMin= 8 ErrMin= 2.83D-06
 ErrMax= 2.83D-06 EMaxC= 1.00D-01 BMatC= 4.47D-09 BMatP= 1.18D-08
 IDIUse=1 WtCom= 1.00D+00 WtEn= 0.00D+00
 Coeff-Com: -0.617D-03 0.879D-02 0.941D-02-0.347D-01-0.103D+00-0.173D+00
 Coeff-Com:  0.399D+00 0.894D+00
 Coeff:     -0.617D-03 0.879D-02 0.941D-02-0.347D-01-0.103D+00-0.173D+00
 Coeff:      0.399D+00 0.894D+00
 Gap=     0.097 Goal=   None    Shift=    0.000
 Gap=     0.188 Goal=   None    Shift=    0.000
 RMSDP=5.66D-06 MaxDP=4.15D-04 DE=-2.17D-08 OVMax= 2.02D-04

 Cycle   9  Pass 1  IDiag  1:
 RMSU=  3.76D-07    CP:  1.00D+00  1.73D+00  1.98D+00  2.12D+00  2.79D+00
                    CP:  2.67D+00  2.16D+00  1.62D+00
 FoFJK:  IHMeth= 1 ICntrl=     0 DoSepK=T KAlg= 1 I1Cent= 0 FoldK=F
 E= -323.526217237494     Delta-E=       -0.000000007886 Rises=F Damp=F
 DIIS: error= 1.18D-06 at cycle   9 NSaved=   9.
 NSaved= 9 IEnMin= 9 EnMin= -323.526217237494     IErMin= 9 ErrMin= 1.18D-06
 ErrMax= 1.18D-06 EMaxC= 1.00D-01 BMatC= 1.31D-09 BMatP= 4.47D-09
 IDIUse=1 WtCom= 1.00D+00 WtEn= 0.00D+00
 Coeff-Com: -0.121D-02 0.460D-02 0.978D-02 0.217D-01-0.146D-01-0.265D+00
 Coeff-Com: -0.290D-01 0.472D+00 0.801D+00
 Coeff:     -0.121D-02 0.460D-02 0.978D-02 0.217D-01-0.146D-01-0.265D+00
 Coeff:     -0.290D-01 0.472D+00 0.801D+00
 Gap=     0.097 Goal=   None    Shift=    0.000
 Gap=     0.188 Goal=   None    Shift=    0.000
 RMSDP=2.82D-06 MaxDP=2.04D-04 DE=-7.89D-09 OVMax= 1.29D-04

 Cycle  10  Pass 1  IDiag  1:
 RMSU=  2.31D-07    CP:  1.00D+00  1.75D+00  2.01D+00  2.18D+00  2.94D+00
                    CP:  2.90D+00  2.60D+00  2.21D+00  1.68D+00
 FoFJK:  IHMeth= 1 ICntrl=     0 DoSepK=T KAlg= 1 I1Cent= 0 FoldK=F
 E= -323.526217240080     Delta-E=       -0.000000002586 Rises=F Damp=F
 DIIS: error= 5.55D-07 at cycle  10 NSaved=  10.
 NSaved=10 IEnMin=10 EnMin= -323.526217240080     IErMin=10 ErrMin= 5.55D-07
 ErrMax= 5.55D-07 EMaxC= 1.00D-01 BMatC= 1.24D-10 BMatP= 1.31D-09
 IDIUse=1 WtCom= 1.00D+00 WtEn= 0.00D+00
 Coeff-Com:  0.901D-04-0.154D-02-0.174D-02 0.967D-02 0.214D-01 0.651D-02
 Coeff-Com: -0.525D-01-0.153D+00-0.209D-01 0.119D+01
 Coeff:      0.901D-04-0.154D-02-0.174D-02 0.967D-02 0.214D-01 0.651D-02
 Coeff:     -0.525D-01-0.153D+00-0.209D-01 0.119D+01
 Gap=     0.097 Goal=   None    Shift=    0.000
 Gap=     0.188 Goal=   None    Shift=    0.000
 RMSDP=9.11D-07 MaxDP=5.94D-05 DE=-2.59D-09 OVMax= 7.39D-05

 Cycle  11  Pass 1  IDiag  1:
 RMSU=  1.38D-07    CP:  1.00D+00  1.75D+00  2.02D+00  2.19D+00  2.98D+00
                    CP:  2.97D+00  2.81D+00  2.59D+00  2.41D+00  1.86D+00
 FoFJK:  IHMeth= 1 ICntrl=     0 DoSepK=T KAlg= 1 I1Cent= 0 FoldK=F
 E= -323.526217240760     Delta-E=       -0.000000000680 Rises=F Damp=F
 DIIS: error= 2.37D-07 at cycle  11 NSaved=  11.
 NSaved=11 IEnMin=11 EnMin= -323.526217240760     IErMin=11 ErrMin= 2.37D-07
 ErrMax= 2.37D-07 EMaxC= 1.00D-01 BMatC= 3.43D-11 BMatP= 1.24D-10
 IDIUse=1 WtCom= 1.00D+00 WtEn= 0.00D+00
 Coeff-Com:  0.260D-03-0.965D-03-0.205D-02-0.439D-02 0.264D-02 0.483D-01
 Coeff-Com:  0.177D-01-0.918D-01-0.220D+00 0.424D-01 0.121D+01
 Coeff:      0.260D-03-0.965D-03-0.205D-02-0.439D-02 0.264D-02 0.483D-01
 Coeff:      0.177D-01-0.918D-01-0.220D+00 0.424D-01 0.121D+01
 Gap=     0.097 Goal=   None    Shift=    0.000
 Gap=     0.188 Goal=   None    Shift=    0.000
 RMSDP=4.52D-07 MaxDP=1.96D-05 DE=-6.80D-10 OVMax= 4.49D-05

 Cycle  12  Pass 1  IDiag  1:
 RMSU=  4.41D-08    CP:  1.00D+00  1.75D+00  2.02D+00  2.19D+00  2.99D+00
                    CP:  2.99D+00  2.90D+00  2.77D+00  2.90D+00  2.65D+00
                    CP:  2.03D+00
 FoFJK:  IHMeth= 1 ICntrl=     0 DoSepK=T KAlg= 1 I1Cent= 0 FoldK=F
 E= -323.526217240964     Delta-E=       -0.000000000204 Rises=F Damp=F
 DIIS: error= 1.20D-07 at cycle  12 NSaved=  12.
 NSaved=12 IEnMin=12 EnMin= -323.526217240964     IErMin=12 ErrMin= 1.20D-07
 ErrMax= 1.20D-07 EMaxC= 1.00D-01 BMatC= 8.03D-12 BMatP= 3.43D-11
 IDIUse=1 WtCom= 1.00D+00 WtEn= 0.00D+00
 Coeff-Com:  0.559D-04 0.626D-04-0.195D-03-0.350D-02-0.394D-02 0.114D-01
 Coeff-Com:  0.177D-01 0.102D-01-0.752D-01-0.237D+00 0.313D+00 0.967D+00
 Coeff:      0.559D-04 0.626D-04-0.195D-03-0.350D-02-0.394D-02 0.114D-01
 Coeff:      0.177D-01 0.102D-01-0.752D-01-0.237D+00 0.313D+00 0.967D+00
 Gap=     0.097 Goal=   None    Shift=    0.000
 Gap=     0.188 Goal=   None    Shift=    0.000
 RMSDP=2.23D-07 MaxDP=1.00D-05 DE=-2.04D-10 OVMax= 2.11D-05

 Cycle  13  Pass 1  IDiag  1:
 RMSU=  4.85D-08    CP:  1.00D+00  1.75D+00  2.02D+00  2.19D+00  2.99D+00
                    CP:  3.00D+00  2.93D+00  2.84D+00  3.00D+00  3.00D+00
                    CP:  2.73D+00  1.81D+00
 FoFJK:  IHMeth= 1 ICntrl=     0 DoSepK=T KAlg= 1 I1Cent= 0 FoldK=F
 E= -323.526217241011     Delta-E=       -0.000000000047 Rises=F Damp=F
 DIIS: error= 4.29D-08 at cycle  13 NSaved=  13.
 NSaved=13 IEnMin=13 EnMin= -323.526217241011     IErMin=13 ErrMin= 4.29D-08
 ErrMax= 4.29D-08 EMaxC= 1.00D-01 BMatC= 1.46D-12 BMatP= 8.03D-12
 IDIUse=1 WtCom= 1.00D+00 WtEn= 0.00D+00
 Coeff-Com: -0.496D-04 0.269D-03 0.461D-03 0.193D-03-0.171D-02-0.940D-02
 Coeff-Com:  0.702D-03 0.287D-01 0.330D-01-0.637D-01-0.237D+00 0.213D+00
 Coeff-Com:  0.104D+01
 Coeff:     -0.496D-04 0.269D-03 0.461D-03 0.193D-03-0.171D-02-0.940D-02
 Coeff:      0.702D-03 0.287D-01 0.330D-01-0.637D-01-0.237D+00 0.213D+00
 Coeff:      0.104D+01
 Gap=     0.097 Goal=   None    Shift=    0.000
 Gap=     0.188 Goal=   None    Shift=    0.000
 RMSDP=1.19D-07 MaxDP=4.86D-06 DE=-4.68D-11 OVMax= 9.20D-06

 Cycle  14  Pass 1  IDiag  1:
 RMSU=  4.05D-08    CP:  1.00D+00  1.75D+00  2.02D+00  2.19D+00  2.99D+00
                    CP:  3.00D+00  2.93D+00  2.85D+00  3.00D+00  3.00D+00
                    CP:  3.00D+00  2.48D+00  2.00D+00
 FoFJK:  IHMeth= 1 ICntrl=     0 DoSepK=T KAlg= 1 I1Cent= 0 FoldK=F
 E= -323.526217241020     Delta-E=       -0.000000000009 Rises=F Damp=F
 DIIS: error= 2.03D-08 at cycle  14 NSaved=  14.
 NSaved=14 IEnMin=14 EnMin= -323.526217241020     IErMin=14 ErrMin= 2.03D-08
 ErrMax= 2.03D-08 EMaxC= 1.00D-01 BMatC= 1.89D-13 BMatP= 1.46D-12
 IDIUse=1 WtCom= 1.00D+00 WtEn= 0.00D+00
 Coeff-Com: -0.204D-05-0.381D-04-0.308D-04 0.416D-03 0.713D-03-0.466D-03
 Coeff-Com: -0.295D-02-0.384D-02 0.354D-02 0.420D-01-0.110D-01-0.157D+00
 Coeff-Com: -0.130D+00 0.126D+01
 Coeff:     -0.204D-05-0.381D-04-0.308D-04 0.416D-03 0.713D-03-0.466D-03
 Coeff:     -0.295D-02-0.384D-02 0.354D-02 0.420D-01-0.110D-01-0.157D+00
 Coeff:     -0.130D+00 0.126D+01
 Gap=     0.097 Goal=   None    Shift=    0.000
 Gap=     0.188 Goal=   None    Shift=    0.000
 RMSDP=4.06D-08 MaxDP=1.72D-06 DE=-9.09D-12 OVMax= 3.20D-06

 Cycle  15  Pass 1  IDiag  1:
 RMSU=  1.43D-08    CP:  1.00D+00  1.75D+00  2.02D+00  2.19D+00  2.99D+00
                    CP:  3.00D+00  2.93D+00  2.85D+00  3.00D+00  3.00D+00
                    CP:  3.00D+00  2.82D+00  2.29D+00  1.50D+00
 FoFJK:  IHMeth= 1 ICntrl=     0 DoSepK=T KAlg= 1 I1Cent= 0 FoldK=F
 E= -323.526217241021     Delta-E=       -0.000000000001 Rises=F Damp=F
 DIIS: error= 1.07D-08 at cycle  15 NSaved=  15.
 NSaved=15 IEnMin=15 EnMin= -323.526217241021     IErMin=15 ErrMin= 1.07D-08
 ErrMax= 1.07D-08 EMaxC= 1.00D-01 BMatC= 4.25D-14 BMatP= 1.89D-13
 IDIUse=1 WtCom= 1.00D+00 WtEn= 0.00D+00
 Coeff-Com:  0.102D-04-0.423D-04-0.807D-04-0.137D-03 0.149D-03 0.218D-02
 Coeff-Com:  0.184D-03-0.414D-02-0.826D-02 0.515D-02 0.475D-01-0.141D-01
 Coeff-Com: -0.181D+00-0.227D+00 0.138D+01
 Coeff:      0.102D-04-0.423D-04-0.807D-04-0.137D-03 0.149D-03 0.218D-02
 Coeff:      0.184D-03-0.414D-02-0.826D-02 0.515D-02 0.475D-01-0.141D-01
 Coeff:     -0.181D+00-0.227D+00 0.138D+01
 Gap=     0.097 Goal=   None    Shift=    0.000
 Gap=     0.188 Goal=   None    Shift=    0.000
 RMSDP=1.77D-08 MaxDP=7.29D-07 DE=-6.82D-13 OVMax= 1.57D-06

 Cycle  16  Pass 1  IDiag  1:
 RMSU=  5.32D-09    CP:  1.00D+00  1.75D+00  2.02D+00  2.19D+00  2.99D+00
                    CP:  3.00D+00  2.93D+00  2.85D+00  3.00D+00  3.00D+00
                    CP:  3.00D+00  2.95D+00  2.40D+00  1.67D+00  1.53D+00
 FoFJK:  IHMeth= 1 ICntrl=     0 DoSepK=T KAlg= 1 I1Cent= 0 FoldK=F
 E= -323.526217241021     Delta-E=       -0.000000000000 Rises=F Damp=F
 DIIS: error= 4.41D-09 at cycle  16 NSaved=  16.
 NSaved=16 IEnMin=16 EnMin= -323.526217241021     IErMin=16 ErrMin= 4.41D-09
 ErrMax= 4.41D-09 EMaxC= 1.00D-01 BMatC= 7.35D-15 BMatP= 4.25D-14
 IDIUse=1 WtCom= 1.00D+00 WtEn= 0.00D+00
 Large coefficients: NSaved= 16 BigCof=    0.00 CofMax=   10.00 Det=-5.46D-15
 Inversion failed.  Reducing to 15 matrices.
 Coeff-Com:  0.937D-05 0.710D-05-0.635D-04-0.155D-03-0.953D-06 0.294D-03
 Coeff-Com:  0.127D-02-0.181D-03-0.726D-02-0.361D-02 0.292D-01 0.487D-01
 Coeff-Com: -0.183D+00-0.234D+00 0.135D+01
 Coeff:      0.937D-05 0.710D-05-0.635D-04-0.155D-03-0.953D-06 0.294D-03
 Coeff:      0.127D-02-0.181D-03-0.726D-02-0.361D-02 0.292D-01 0.487D-01
 Coeff:     -0.183D+00-0.234D+00 0.135D+01
 Gap=     0.097 Goal=   None    Shift=    0.000
 Gap=     0.188 Goal=   None    Shift=    0.000
 RMSDP=5.59D-09 MaxDP=1.65D-07 DE=-4.55D-13 OVMax= 5.80D-07

 SCF Done:  E(UwB97XD) =  -323.526217241     A.U. after   16 cycles
             Convg  =    0.5592D-08             -V/T =  2.0101
 <Sx>= 0.0000 <Sy>= 0.0000 <Sz>= 0.5000 <S**2>= 0.7548 S= 0.5024
 <L.S>= 0.000000000000E+00
 KE= 3.202879269784D+02 PE=-1.247542095636D+03 EE= 3.629535033888D+02
 Annihilation of the first spin contaminant:
 S**2 before annihilation     0.7548,   after     0.7500
 Leave Link  502 at Fri Nov  4 21:11:33 2022, MaxMem= 3276800000 cpu:     358.2
 (Enter /local/g09-source/g09/l601.exe)
 Copying SCF densities to generalized density rwf, IOpCl= 1 IROHF=0.

 **********************************************************************

            Population analysis using the SCF density.

 **********************************************************************

 Alpha  occ. eigenvalues --  -19.05009 -19.03523 -14.38175 -10.19136 -10.17689
 Alpha  occ. eigenvalues --  -10.15384  -1.00844  -0.83155  -0.74489  -0.66496
 Alpha  occ. eigenvalues --   -0.58571  -0.47325  -0.40861  -0.39786  -0.36888
 Alpha  occ. eigenvalues --   -0.35121  -0.34157  -0.30769  -0.30447  -0.27688
 Alpha  occ. eigenvalues --   -0.25051  -0.15607  -0.14656  -0.11827  -0.02587
 Alpha virt. eigenvalues --    0.07159   0.07437   0.07491   0.08158   0.15489
 Alpha virt. eigenvalues --    0.17241   0.17280   0.18582   0.20405   0.20827
 Alpha virt. eigenvalues --    0.23501   0.24486   0.24869   0.27201   0.27662
 Alpha virt. eigenvalues --    0.28584   0.28942   0.29702   0.32162   0.33372
 Alpha virt. eigenvalues --    0.36235   0.37499   0.38622   0.39082   0.41074
 Alpha virt. eigenvalues --    0.42469   0.43804   0.45187   0.46180   0.48258
 Alpha virt. eigenvalues --    0.49162   0.50145   0.51742   0.52666   0.53102
 Alpha virt. eigenvalues --    0.53553   0.54790   0.55568   0.55737   0.59757
 Alpha virt. eigenvalues --    0.62668   0.63913   0.67101   0.73669   0.85837
 Alpha virt. eigenvalues --    0.86684   0.88540   0.91659   0.92255   0.94912
 Alpha virt. eigenvalues --    0.97754   1.03075   1.10528   1.14766   1.15156
 Alpha virt. eigenvalues --    1.19315   1.21211   1.24620   1.26235   1.27289
 Alpha virt. eigenvalues --    1.30669   1.35262   1.38709   1.42389   1.47329
 Alpha virt. eigenvalues --    1.50899   1.52718   1.56122   1.56882   1.60357
 Alpha virt. eigenvalues --    1.60895   1.64640   1.66568   1.67667   1.72109
 Alpha virt. eigenvalues --    1.77935   1.84025   1.91208   1.97370   1.98882
 Alpha virt. eigenvalues --    2.01800   2.04776   2.09565   2.12867   2.15094
 Alpha virt. eigenvalues --    2.15543   2.17523   2.19154   2.21270   2.22758
 Alpha virt. eigenvalues --    2.25341   2.28157   2.32310   2.35485   2.39177
 Alpha virt. eigenvalues --    2.45954   2.46781   2.50053   2.51741   2.53365
 Alpha virt. eigenvalues --    2.58904   2.62989   2.66606   2.70270   2.74122
 Alpha virt. eigenvalues --    2.76515   2.80397   2.85193   2.89053   2.91379
 Alpha virt. eigenvalues --    2.94906   2.98840   3.02364   3.04531   3.10737
 Alpha virt. eigenvalues --    3.20987   3.24315   3.31655   3.36080   3.43458
 Alpha virt. eigenvalues --    3.51858   3.59407   3.64720   3.68410   3.72046
 Alpha virt. eigenvalues --    3.89906   4.41569   4.60516   4.64412   4.76874
 Alpha virt. eigenvalues --    4.84793   4.89335
  Beta  occ. eigenvalues --  -19.04329 -19.03083 -14.37092 -10.19155 -10.17676
  Beta  occ. eigenvalues --  -10.15385  -0.98900  -0.81721  -0.74285  -0.66117
  Beta  occ. eigenvalues --   -0.57707  -0.45915  -0.40088  -0.39428  -0.36209
  Beta  occ. eigenvalues --   -0.34469  -0.32917  -0.30069  -0.28543  -0.27082
  Beta  occ. eigenvalues --   -0.23658  -0.13981  -0.11278  -0.10699
  Beta virt. eigenvalues --    0.08087   0.08431   0.08679   0.09753   0.16442
  Beta virt. eigenvalues --    0.18187   0.18371   0.19848   0.21329   0.21507
  Beta virt. eigenvalues --    0.23822   0.24131   0.24873   0.25998   0.27795
  Beta virt. eigenvalues --    0.28374   0.29162   0.29440   0.30207   0.32639
  Beta virt. eigenvalues --    0.33753   0.36668   0.37748   0.38909   0.39539
  Beta virt. eigenvalues --    0.41335   0.42855   0.44237   0.45470   0.46490
  Beta virt. eigenvalues --    0.48616   0.49479   0.50352   0.51914   0.52948
  Beta virt. eigenvalues --    0.53373   0.53811   0.54957   0.55733   0.56240
  Beta virt. eigenvalues --    0.60539   0.63161   0.64804   0.67321   0.74034
  Beta virt. eigenvalues --    0.85893   0.86886   0.88583   0.91717   0.92380
  Beta virt. eigenvalues --    0.94975   0.97889   1.03181   1.10746   1.15296
  Beta virt. eigenvalues --    1.15863   1.19474   1.22260   1.24713   1.26909
  Beta virt. eigenvalues --    1.28323   1.30870   1.35481   1.38825   1.42863
  Beta virt. eigenvalues --    1.48059   1.52066   1.53842   1.56708   1.57896
  Beta virt. eigenvalues --    1.60946   1.61382   1.64910   1.67293   1.68230
  Beta virt. eigenvalues --    1.73020   1.79085   1.84159   1.91649   1.97627
  Beta virt. eigenvalues --    1.99459   2.02319   2.05127   2.10203   2.13298
  Beta virt. eigenvalues --    2.15971   2.16176   2.17915   2.19716   2.21673
  Beta virt. eigenvalues --    2.23640   2.26310   2.28428   2.33099   2.35919
  Beta virt. eigenvalues --    2.39386   2.46107   2.47099   2.50283   2.52580
  Beta virt. eigenvalues --    2.53712   2.59569   2.63407   2.67220   2.70724
  Beta virt. eigenvalues --    2.74365   2.77162   2.81800   2.86119   2.89342
  Beta virt. eigenvalues --    2.91634   2.95388   2.98983   3.03236   3.04874
  Beta virt. eigenvalues --    3.10849   3.21665   3.24402   3.32594   3.36776
  Beta virt. eigenvalues --    3.43774   3.51883   3.59526   3.64822   3.68430
  Beta virt. eigenvalues --    3.72075   3.89913   4.43448   4.61091   4.64793
  Beta virt. eigenvalues --    4.76967   4.85659   4.89418
     Alpha Molecular Orbital Coefficients:
                           1         2         3         4         5
                           O         O         O         O         O
     Eigenvalues --  -.19050091024592E+02 -.19035234459904E+02 -.14381746568516E+02 -.10191364667045E+02 -.10176885594574E+02
   1 1   C  1S       -.64585971279830E-05 0.41021592185113E-05 -.34503842967404E-04 0.99366450278301E+00 -.96247394562261E-02
   2        2S       0.61424288173138E-04 0.40673483977116E-04 -.15350618914075E-03 0.46619274094062E-01 -.75164566047153E-03
   3        3S       0.74414487184488E-04 -.59446110136797E-04 0.74902305470794E-03 -.22974610876388E-01 0.63002393518481E-02
   4        4S       -.82591976367089E-02 -.20078206787069E-02 0.21055503484667E-02 -.17495630080222E-01 0.25491329425241E-02
   5        5PX      -.17924090217824E-04 0.30147032523280E-04 -.16753990746137E-04 0.21851764891999E-03 -.12506646874913E-03
   6        5PY      0.39716814765696E-04 -.16648641531162E-04 -.21140688373349E-03 -.28595383704157E-03 -.89331460398634E-04
   7        5PZ      -.16796419481038E-04 0.54629167981797E-05 0.16291077466869E-03 0.24902463839006E-03 0.23887446096405E-05
   8        6PX      0.56441615066860E-04 -.15036998201388E-03 0.31793620255650E-04 -.24437738259711E-02 0.21531755560482E-02
   9        6PY      -.15822019303985E-03 -.12335690044795E-04 -.31872064109999E-03 0.14143504943923E-02 0.16547834481990E-02
  10        6PZ      0.53937519274048E-05 -.77493881774828E-05 0.13890856491203E-03 -.18779336518745E-02 0.49229610008640E-03
  11        7PX      -.96064717015489E-03 -.18887178899188E-02 0.52782748650491E-03 -.22571177406076E-02 0.46249568452609E-03
  12        7PY      -.20910126736672E-03 -.53498213569068E-03 0.31867824215081E-03 0.89273880776576E-03 -.30294373300779E-03
  13        7PZ      -.73247297420412E-03 0.92917974101989E-03 0.10217533452753E-03 -.21573669527341E-02 0.34257517794651E-04
  14        8XX      -.66455821984322E-04 -.11929106869528E-04 -.31156539668451E-04 -.70634239326098E-02 -.30186879470620E-03
  15        8YY      -.61193539559497E-04 -.75327437281714E-05 0.15962144123433E-03 -.72534178486164E-02 -.14363359203876E-03
  16        8ZZ      -.43437280824193E-04 0.30437767215567E-05 0.66522904542163E-04 -.71645334045564E-02 -.71181834711740E-04
  17        8XY      -.41603610145915E-04 0.55782509641837E-05 0.19561111446991E-04 -.92180499170274E-05 -.14760027649578E-03
  18        8XZ      0.39136558389535E-04 -.77016403980215E-05 -.23119317566115E-04 -.11234012516717E-03 -.52336289445190E-04
  19        8YZ      0.29941069999619E-04 0.78354422325298E-05 -.16792578019494E-03 0.19052041458830E-03 0.21443610368013E-04
  20 2   C  1S       -.37891727954512E-05 0.39060954159985E-05 0.92761516662413E-05 0.93453290402128E-02 0.99355820276458E+00
  21        2S       -.15029378093878E-04 -.16511687452642E-04 0.74843975722023E-04 0.19674546570129E-03 0.46873470061393E-01
  22        3S       0.20599699338387E-03 -.12147180553189E-03 -.16436747387735E-03 0.56112375546747E-02 -.21223850486890E-01
  23        4S       0.83157437815885E-02 0.22545454656524E-02 -.19879596423356E-02 0.14517364803841E-01 -.16189046495994E-02
  24        5PX      0.21546921653471E-06 -.11862643504521E-04 0.14938904350376E-04 0.11860178797740E-03 -.17035641351002E-03
  25        5PY      0.18207007139468E-04 -.36747711559447E-05 -.33715521538962E-05 0.79540069221805E-05 0.93745479052843E-05
  26        5PZ      -.38069327876782E-05 -.71169164984724E-05 0.74420627398469E-05 0.72402063104701E-04 -.26685692254027E-03
  27        6PX      -.80715241686938E-04 0.48585008554540E-04 0.20964940494546E-04 -.22324319831191E-02 0.14639384741590E-02
  28        6PY      -.13340025940123E-03 -.14474490242513E-03 0.23328842045194E-03 -.13829429363785E-02 0.98597377916511E-03
  29        6PZ      0.10931097581854E-05 0.56940689543025E-04 -.56323879478759E-04 -.29191527774754E-03 -.69551279778469E-03
  30        7PX      -.16982492013200E-02 -.92057561197646E-03 0.38207205074830E-03 -.13590709723974E-02 -.11898389839325E-03
  31        7PY      -.14867181915120E-02 -.86583845724326E-03 0.19628284539140E-03 -.99468557670584E-03 0.41599234479366E-03
  32        7PZ      0.71936595765327E-03 -.82536645619697E-03 -.92804944471074E-04 0.21170050597294E-02 0.94165707195399E-03
  33        8XX      0.19582602574193E-04 0.99153071198614E-05 0.12216867371911E-05 -.53313784438581E-03 -.74119752491988E-02
  34        8YY      -.17694701100774E-04 0.36884536197033E-04 -.29965137206866E-04 -.25639192408235E-03 -.72380624983493E-02
  35        8ZZ      -.78667259575721E-05 0.17461420617531E-04 0.63490477888185E-05 -.18364185425861E-03 -.74706502021570E-02
  36        8XY      0.93830966685723E-06 0.29396869763331E-05 -.32892530885990E-04 -.15460409333368E-03 -.11701202307325E-03
  37        8XZ      0.13778177431601E-04 -.47394555696969E-05 0.15045371019801E-04 -.91950487000535E-04 -.12363423946494E-03
  38        8YZ      0.81295212387915E-05 -.11526132212214E-04 0.14705525271262E-04 -.33130303408272E-04 -.14436118670703E-03
  39 3   N  1S       -.28066445733596E-04 -.28554258819736E-04 0.99292251207713E+00 -.76275837388636E-04 0.71186702169210E-05
  40        2S       0.21281086899905E-03 0.11603072344029E-03 0.33937331458991E-01 0.22139430163440E-04 0.25340227722100E-04
  41        3S       0.28260905853667E-03 0.90855121796619E-04 0.24580911359916E-02 0.18780275378703E-02 -.17434323732070E-02
  42        4S       0.10754163302415E-01 0.50916339849090E-02 -.23931083296438E-03 0.13252526079290E-01 -.53510867812480E-02
  43        5S       0.19439157973121E-04 -.14058318338377E-03 -.13791599272136E-03 0.13637359113159E-02 -.14257652968146E-03
  44        6S       0.12898030070704E-04 0.31757725294693E-05 0.14996589485478E-04 -.22248598965729E-03 0.41264695147898E-04
  45        7PX      -.29444848888710E-03 0.22895984114470E-03 -.41104580449304E-03 0.19850793154510E-04 -.47695709883927E-04
  46        7PY      -.11644941663555E-03 -.19880373794719E-03 -.36142598268520E-03 0.17374431025528E-04 -.38656807726009E-04
  47        7PZ      0.50336568687205E-04 0.34123225139328E-04 -.21060886537836E-03 0.57130696867713E-04 0.46247330168900E-04
  48        8PX      0.27042142636822E-03 -.38557468898620E-04 0.12181370413859E-03 0.14800529551885E-02 0.15604455049729E-02
  49        8PY      0.15270995320125E-03 -.90821925967870E-04 0.29535809095696E-03 0.17890138048176E-02 0.11475815342783E-03
  50        8PZ      0.48236210654896E-05 0.30972853694949E-04 0.36380429844098E-03 -.16884584251811E-02 -.32050328220720E-03
  51        9PX      -.80813617244533E-02 0.66532283797181E-02 -.47525896456856E-03 0.31400042663552E-02 0.93085798918311E-03
  52        9PY      -.11369561859587E-02 -.27603735929601E-02 -.56199966343021E-03 0.56061696226039E-02 0.14208677867934E-02
  53        9PZ      0.10133444660768E-02 0.10595993559082E-03 -.35411129245491E-04 -.35991003019852E-02 -.94333002878297E-03
  54       10PX      0.68205229681186E-04 0.49996261309475E-04 -.38784156192124E-04 -.13749130478704E-03 -.11515479692051E-03
  55       10PY      0.10722452896347E-03 -.64474842648541E-04 -.22434196294431E-04 0.16920285625631E-03 -.28582980694022E-03
  56       10PZ      -.26807286674545E-04 0.66534381263216E-04 0.30700504517608E-04 0.32815720668198E-04 0.10507969321434E-03
  57       11PX      -.65438073264513E-05 -.11246995983817E-04 0.77932164633665E-05 0.32137472959862E-04 0.48574790868156E-04
  58       11PY      -.62587948854040E-05 0.15777990812167E-04 0.52518000421080E-06 -.17260092556494E-04 0.74130403289458E-04
  59       11PZ      -.36862952105290E-05 -.14318287622119E-04 -.87229876784322E-05 -.46698980849660E-04 -.70648201877085E-04
  60       12XX      -.21940536155733E-03 0.10576418851429E-03 -.77978062578424E-02 -.14220928608271E-03 -.12967091988863E-03
  61       12YY      -.76699227392747E-04 0.55054113752522E-04 -.78991523462081E-02 -.24142410306473E-03 0.27167267811356E-04
  62       12ZZ      -.10988016800275E-03 -.57609600320499E-04 -.76942134479375E-02 -.14799881862495E-03 0.80713568106227E-05
  63       12XY      -.61510542077249E-04 -.13001850343185E-03 0.12014165107917E-03 -.40551931313820E-04 -.43745433943864E-04
  64       12XZ      0.41999284049873E-04 0.11694335049555E-04 0.95745781433882E-05 -.26632945364889E-04 0.76266001187988E-04
  65       12YZ      -.15149375629590E-04 -.23012772247593E-04 0.22034402877178E-03 0.22564061337956E-03 -.27767683147920E-04
  66 4   H  1S       0.43409424236759E-04 -.43586214614074E-04 -.44897830115998E-04 -.33617697016902E-04 -.19669785224475E-03
  67        2S       -.12700978116816E-04 0.24261420101404E-03 -.10008184454531E-03 0.21366901502681E-02 -.53016162890824E-03
  68        3PX      -.27355179562931E-05 -.22472564609718E-05 -.15308024092683E-04 -.20586157877369E-03 -.62326581885874E-04
  69        3PY      -.15167007908883E-04 0.42107958391984E-05 0.63945098863791E-04 0.15178275354780E-03 -.48922267369680E-04
  70        3PZ      0.49554509739846E-05 0.24207349746945E-05 -.30055522075589E-04 0.14679430829574E-03 -.59706277326748E-05
  71 5   H  1S       -.89711450196985E-05 0.85519963053106E-06 -.56279491119918E-04 0.11529913832620E-03 -.12504608764844E-03
  72        2S       0.11332009105825E-04 -.53670079279816E-04 -.14731734665612E-03 0.21910797112837E-02 -.10549254903683E-03
  73        3PX      -.11800160016329E-05 0.94900905802113E-06 0.30202806112404E-05 0.54997692607573E-04 0.24683693996959E-04
  74        3PY      -.79545710775119E-05 -.78666209282776E-05 0.32250672419529E-04 -.16306642146268E-03 0.20951099127478E-04
  75        3PZ      0.92246726354582E-05 0.96521150306284E-05 -.42633571678643E-04 -.23191678212062E-03 0.10864136526452E-04
  76 6   O  1S       0.99268865074282E+00 0.19910771436950E-03 -.41027990531959E-04 -.43789405008590E-04 -.36379360504959E-04
  77        2S       0.24773929023813E-01 0.16956147407268E-03 0.14500505418120E-03 -.28541193438438E-03 -.19392124442583E-03
  78        3S       0.15691741191167E-01 -.74463256561916E-03 0.29988562173385E-03 0.14199471623116E-02 0.14288475908436E-02
  79        4S       -.17726199333439E-01 0.43160708872650E-02 -.74281243696829E-03 0.15475606325393E-02 0.37802380469980E-02
  80        5PX      0.11482656262383E-02 -.15947914386393E-04 0.20100624355676E-03 -.49024538263441E-04 -.18293605966675E-04
  81        5PY      0.45294727335519E-03 0.85279242193860E-05 0.80622244182185E-04 -.61902976992099E-04 -.22389508863831E-04
  82        5PZ      -.28436541204737E-03 0.27478812799537E-05 -.42201184864000E-04 0.35884514372506E-04 0.18197682359524E-04
  83        6PX      -.46826902115313E-03 -.13337980840597E-04 0.10478417776711E-03 0.92176028472753E-03 0.94593394685954E-03
  84        6PY      -.20257166794266E-03 -.37601859263114E-04 -.43456024415200E-04 0.35639262097879E-03 0.51718185563172E-03
  85        6PZ      0.10207432649813E-03 -.42915203983530E-05 -.57096044281215E-04 -.16296857402106E-03 -.29599202518659E-03
  86        7PX      -.26551336287416E-02 0.55987994896685E-03 -.19060298057021E-03 -.12824656440007E-03 0.67076525121601E-03
  87        7PY      -.11289104626099E-02 0.82584216054708E-03 0.19774742161971E-04 -.11322252576655E-02 0.88753629499574E-05
  88        7PZ      0.72864112627482E-03 -.22531512179171E-03 0.63880013098573E-04 0.67261062402142E-03 0.27631691314545E-04
  89        8XX      -.84121303690161E-02 -.43656509185939E-05 -.12943137117463E-03 0.41133975691515E-04 0.38466593327218E-04
  90        8YY      -.83512096918382E-02 0.96718261184142E-04 -.10383830262066E-06 -.13808629875683E-03 -.11098536572286E-03
  91        8ZZ      -.83050698113959E-02 0.93241987076759E-04 -.22229002447820E-06 -.17624203638726E-03 -.11599342128550E-03
  92        8XY      -.16169738177823E-04 0.22426796437621E-04 -.65302028748707E-04 0.64543131256380E-04 0.11983252955428E-03
  93        8XZ      0.23136932494761E-04 0.51517732621151E-05 0.46054230590550E-04 -.14911282338640E-04 -.50817341535992E-04
  94        8YZ      0.38972660370141E-04 0.18801709602654E-06 0.13485998243390E-04 -.12506305754098E-03 -.35869464550402E-04
  95 7   O  1S       -.14953743785704E-03 0.99279219456290E+00 -.36631712841406E-04 -.13734191020319E-04 0.15326264289776E-04
  96        2S       0.11353540713290E-03 0.24671454329726E-01 0.40217033362357E-04 -.82845769714685E-04 0.10282302631076E-03
  97        3S       -.57296476567464E-03 0.14660440831558E-01 0.28379342232113E-03 -.62971667068610E-05 -.80848911656720E-03
  98        4S       0.35864239421340E-02 -.14362079886321E-01 -.37713232950406E-04 -.25154929028891E-02 0.21559508006484E-02
  99        5PX      0.27660888163849E-04 -.72499314602728E-03 -.17127046878165E-03 0.26977830745776E-04 -.27541751193908E-04
 100        5PY      -.54190893268593E-05 0.66579200865168E-03 0.14824837599385E-03 -.46890874119676E-04 -.47610175316312E-04
 101        5PZ      -.34053345511529E-06 -.15193658002086E-03 -.25316114999600E-04 0.51646696541891E-04 0.17405781720714E-04
 102        6PX      -.75618909160398E-04 0.47868930185942E-03 -.33322598655626E-03 -.15608551696273E-03 0.10014205219389E-03
 103        6PY      -.56068426446435E-05 -.36013041387583E-03 0.15359359543756E-03 -.16206205769069E-03 -.12668306186635E-03
 104        6PZ      0.10874326753387E-05 0.80525333134034E-04 -.78774583466489E-04 0.58403167441585E-04 0.22719381350845E-04
 105        7PX      -.23040586883949E-04 0.16591870938825E-02 0.23362800946450E-03 -.29321601770034E-03 -.69685227916583E-03
 106        7PY      0.10194888966515E-02 -.20172711443295E-02 0.43966115890759E-04 -.16608884580556E-02 0.26459829513702E-03
 107        7PZ      -.29541785694146E-03 0.44349839761844E-03 0.33442732818359E-04 0.82130959792029E-03 0.27041422551184E-03
 108        8XX      -.30720361053905E-04 -.82852248923170E-02 0.85477983747607E-04 0.52993317335001E-04 0.65944692900490E-04
 109        8YY      0.97436394160899E-04 -.82176657568421E-02 0.34807048692029E-05 -.12115257750879E-03 0.13405992498456E-04
 110        8ZZ      0.58380874771780E-04 -.81033200409995E-02 -.57796041495467E-04 -.75222876526972E-04 -.87617814028909E-05
 111        8XY      0.10132039129444E-04 0.13589608906785E-03 -.10246166950411E-03 -.46699068611479E-04 0.71747247734590E-05
 112        8XZ      0.13474323267325E-04 -.25027400799044E-04 0.20776223903850E-04 -.82242192100880E-04 -.15835178255075E-04
 113        8YZ      -.22154759755331E-04 0.50214403688874E-04 -.16687920690369E-04 -.47637175878352E-04 0.14445831142421E-04
 114 8   C  1S       -.40936090662268E-05 0.57212826565437E-05 0.71948913420922E-05 -.51589517577390E-04 0.17719235816116E-02
 115        2S       -.15979407102257E-04 0.14212163162044E-04 0.11674976094793E-04 -.43607427691857E-04 -.23034225425403E-03
 116        3S       0.11896298166779E-03 -.24449674569621E-03 -.27731651380436E-04 -.20044841878800E-03 0.49227213027189E-02
 117        4S       -.15026717026693E-02 0.10053603275924E-02 0.38333349283044E-03 -.56588584277824E-02 0.23251217111712E-03
 118        5PX      -.31309872055112E-06 0.35236029503613E-05 -.16729855583307E-04 0.57237910864593E-04 -.44529032154464E-05
 119        5PY      0.11895400810796E-06 -.89445836843216E-05 -.11863004046894E-04 -.10409167064323E-04 -.66147584258662E-04
 120        5PZ      -.74731484369449E-05 0.13000291728376E-04 -.79205759886084E-05 0.60425027186183E-04 -.36640557481899E-04
 121        6PX      -.23339451882347E-04 0.14714915189754E-04 0.89232683574279E-04 0.14896221922911E-03 -.77622649812527E-03
 122        6PY      0.32157253481399E-04 0.13064627019468E-03 -.35404486252935E-04 0.15682146259472E-03 -.44858747328118E-03
 123        6PZ      -.37473588874806E-04 -.15267960924148E-04 -.98255117894899E-05 0.26861649376654E-03 -.19413734426430E-02
 124        7PX      0.37365311987056E-03 0.84600619875210E-04 -.69400534079805E-04 0.67071602583539E-03 0.79182515432855E-04
 125        7PY      0.31614204079019E-03 0.13573691792538E-03 -.79317609033370E-04 0.40113587429510E-03 -.94831912984108E-04
 126        7PZ      0.24963020337706E-03 -.43874447926907E-03 -.51212100040494E-04 0.15022645498515E-02 0.42973032549203E-04
 127        8XX      -.50782371377372E-05 0.78624047143408E-05 0.13613571530454E-04 0.85011018597295E-05 -.25018528210369E-03
 128        8YY      -.60904044636358E-05 0.19875806762214E-04 0.31089737026560E-04 -.54848029345743E-04 -.12770424871986E-03
 129        8ZZ      -.74064249851288E-05 0.11310784323365E-04 0.16135027100417E-04 -.49357055267473E-04 -.36755220263719E-03
 130        8XY      -.15978885848334E-06 0.56277825729338E-05 0.64478337924769E-05 0.31455677125861E-04 0.35034099577063E-04
 131        8XZ      -.43782420425676E-05 0.66650927935822E-05 -.12798602292052E-05 -.14810886680021E-04 -.40155679362737E-04
 132        8YZ      0.53802421725879E-05 -.24501860811911E-05 0.77392428489611E-05 -.21279394591072E-04 -.30158942302870E-04
 133 9   H  1S       0.15427564149755E-05 0.21394452753292E-04 0.23172211677265E-04 -.15422195867289E-03 -.24156787159226E-04
 134        2S       0.52425271559665E-04 -.28555111883670E-03 0.10438215631072E-03 -.67195008993617E-03 0.32963557959140E-02
 135        3PX      -.24127613475423E-05 0.37093860215295E-08 -.24614404312309E-05 -.64524439796350E-04 0.14834027138838E-03
 136        3PY      -.12906782069731E-04 -.17277788011688E-04 -.12974893513912E-04 -.30371838709553E-04 -.21193841385164E-03
 137        3PZ      0.73775730632771E-05 0.47037841771971E-05 0.10683015906471E-04 -.27100820812051E-05 -.61597989302284E-04
 138 10  H  1S       0.24639008987271E-04 -.48804831839270E-05 -.69902131373355E-05 -.16598589515377E-03 -.17130365050630E-03
 139        2S       -.98678038973120E-04 0.14372160908863E-03 -.47487960906184E-04 -.54277659046958E-03 0.31791382226589E-02
 140        3PX      0.22720389223405E-05 -.29058614667634E-05 -.43728999738036E-05 -.20977541523716E-05 -.81981227735790E-04
 141        3PY      0.25169531195606E-05 0.16397535987035E-06 -.93218983994300E-05 0.10950909773151E-04 0.27974531283058E-03
 142        3PZ      0.74918311368032E-05 -.24266829721007E-06 -.18084479514334E-06 -.15702603292433E-05 -.16798384064886E-03
 143 11  H  1S       -.26580157522231E-04 0.33718806071152E-04 0.15668926879104E-04 0.90265231306548E-04 -.16055809843925E-03
 144        2S       0.32096234713273E-03 -.11306299509052E-04 -.74940037937678E-05 -.78829571464310E-03 -.48835504389651E-03
 145        3PX      -.18259364175489E-06 -.17210859825038E-05 -.77655554111427E-05 0.80421112890891E-04 0.26102920466682E-04
 146        3PY      0.62496634022774E-05 -.35270850482424E-04 -.76461949123446E-05 0.20574962487450E-04 0.11635663241143E-04
 147        3PZ      -.75171689912030E-05 -.16394506191292E-04 0.40322202806832E-05 0.64117249827479E-04 0.25729602970045E-04
 148 12  H  1S       0.24546455701172E-05 0.37731682165924E-05 -.44141534014133E-05 -.42492835849310E-04 -.20352152026886E-03
 149        2S       -.71648610679979E-04 -.64276345922328E-04 -.37441492776045E-04 0.14970944235702E-03 -.40815637369182E-03
 150        3PX      0.25103291464135E-05 0.59117249463023E-05 0.27103318116675E-05 -.10369203684021E-04 0.32023446360504E-04
 151        3PY      0.11717339851018E-05 0.22151268794833E-05 0.11080088917537E-04 -.10362150022568E-04 -.18087932644390E-05
 152        3PZ      0.21919198011093E-06 0.22060220164655E-05 0.21901872377922E-06 -.35812743396988E-04 0.48104773589387E-04
 153 13  H  1S       -.47612840885161E-05 -.79618434964742E-06 0.20590459273669E-04 -.85942089747477E-04 -.10701444878011E-03
 154        2S       -.78680955727447E-05 -.40164279987760E-04 0.81718945697874E-04 0.46423807895435E-04 -.51938326819311E-03
 155        3PX      0.14419073666199E-05 0.23994174244773E-05 -.78731179541347E-05 0.30620911724207E-04 0.87450752673908E-05
 156        3PY      0.10650171507720E-07 0.28026953572696E-05 -.11163593585789E-04 -.93206863933245E-06 -.54418332126864E-04
 157        3PZ      0.56557049769328E-05 0.10248702901544E-05 -.46394456519561E-05 0.64607283094268E-05 -.15101334137902E-03
                           6         7         8         9        10
                           O         O         O         O         O
     Eigenvalues --  -.10153836917091E+02 -.10084385806884E+01 -.83154588206342E+00 -.74489361588579E+00 -.66495675370701E+00
   1 1   C  1S       0.62247051837048E-04 -.32508082161740E-01 -.15242374483175E-01 -.12337170593286E+00 0.10290540574499E+00
   2        2S       0.41524413028767E-04 0.60735879937039E-01 0.28691976807133E-01 0.23705987009783E+00 -.20253872163070E+00
   3        3S       -.12306793519045E-02 0.13395143912117E-01 0.15494045682510E-01 0.19815982923671E+00 -.18500781667944E+00
   4        4S       -.20446019560115E-01 0.15944482894243E-01 0.11768234357840E+00 0.10158968432104E+00 -.67032298372325E-01
   5        5PX      -.10561618936312E-03 -.50565087742231E-02 0.24504317777450E-01 0.60096534078145E-01 0.10589569395310E-01
   6        5PY      -.36189636404086E-04 -.36015168096770E-01 -.90573709747200E-02 0.16510850447683E-01 0.50897455006692E-01
   7        5PZ      -.61385224199054E-04 0.27540837489805E-01 0.51323623044270E-02 0.19663018647585E-01 -.18047522781266E-01
   8        6PX      -.10808062039095E-03 0.33631288466318E-04 0.12695678018655E-01 0.11882929852766E-01 0.45668128970664E-03
   9        6PY      0.15134136179490E-03 0.22526491775236E-02 0.77743913267327E-03 0.39847618683617E-02 0.38495781287184E-03
  10        6PZ      -.35616434341710E-03 -.55502825241981E-02 -.68059711796324E-02 0.47447412010971E-02 -.11690470601397E-02
  11        7PX      -.45602605190041E-02 -.15803913617447E-02 0.56933383308663E-02 0.13518534256269E-01 -.12311131612755E-02
  12        7PY      -.18002753482574E-02 -.12766644345632E-01 -.19935333337737E-02 -.12818717452660E-01 0.22612743419451E-01
  13        7PZ      -.18965376907583E-02 0.10764422216007E-01 0.20705636998396E-01 0.17558098602682E-01 -.12912942614451E-01
  14        8XX      -.40224135442622E-04 -.25380146859623E-02 -.97297234458747E-03 0.16803580117133E-02 0.50529196697081E-02
  15        8YY      -.66296252487606E-04 0.59982618353256E-02 0.16908412357699E-02 -.19144335894631E-02 -.76352904261653E-03
  16        8ZZ      0.14342186704923E-04 0.15831696318291E-02 -.84484172890697E-03 -.48797858348239E-02 0.12586069784301E-02
  17        8XY      0.58901842534251E-04 0.14581175325369E-02 -.33454836343081E-02 0.60576080642527E-02 0.45483484810668E-03
  18        8XZ      -.27686341436897E-04 -.11289345000355E-02 0.35006153189512E-02 -.15087140118722E-03 0.20740376502507E-02
  19        8YZ      -.28034363216818E-05 -.71209521407468E-02 -.13131907372055E-02 -.24271898759904E-02 0.56184799167648E-02
  20 2   C  1S       -.20481787697887E-02 -.65536326883265E-02 -.14018749208268E-01 -.13390904342502E+00 -.18392643635177E-01
  21        2S       -.46766125434065E-03 0.12002741963025E-01 0.25228585342931E-01 0.25326609138595E+00 0.31009604246903E-01
  22        3S       0.55152610599597E-02 0.10563794756160E-01 0.13815323579468E-01 0.20659179861810E+00 0.43164990964592E-01
  23        4S       0.24895665365542E-01 0.27119798465301E-01 -.83821386187580E-01 -.81115764029485E-01 -.48851554698265E-02
  24        5PX      -.19270263278883E-04 -.70640096200588E-02 -.68367453233067E-02 -.48921846417334E-01 0.71280504218412E-01
  25        5PY      0.40601217184673E-04 -.67664649490100E-02 -.85760379840782E-02 -.21617726511944E-01 0.57939610336934E-01
  26        5PZ      0.68518048143221E-04 0.13713674035261E-02 0.10277396845306E-02 0.72226676579370E-02 0.63660572267551E-01
  27        6PX      0.11380048462390E-02 -.38598276980021E-02 0.72224839891691E-03 -.77617232105604E-02 0.93259810097954E-02
  28        6PY      0.55319042540802E-03 -.33221084661266E-02 -.25319782632830E-02 0.49679081135306E-02 0.13280005679386E-01
  29        6PZ      0.22638553545599E-02 0.30532912426084E-02 0.80209710988650E-02 -.28258780145400E-02 0.19811245275128E-01
  30        7PX      -.38702546368396E-02 -.84761697155119E-02 0.17561288476066E-01 0.44361323576040E-02 0.27503036766983E-02
  31        7PY      -.29089659125866E-02 -.41930627119307E-02 0.11162311820177E-01 0.12118047548908E-01 -.80298557490973E-02
  32        7PZ      0.24506687175181E-02 -.11201291714130E-04 -.12547831787348E-01 -.20012194738013E-01 -.24557688380818E-02
  33        8XX      -.17183423226730E-03 0.95233474470335E-03 0.28633117260854E-04 0.80610483417947E-03 -.65379077715410E-02
  34        8YY      -.15953216246638E-03 0.86970105715040E-03 -.38488821609964E-05 -.43470841227040E-02 -.23634110512781E-02
  35        8ZZ      -.23703605090449E-03 -.30829322915155E-03 -.59246591854976E-03 -.73625477389380E-03 0.90644987838466E-02
  36        8XY      -.24926025739237E-04 0.14529226159511E-02 0.10632181449951E-02 0.58514276533307E-02 -.37175490603574E-02
  37        8XZ      -.77322459697921E-04 -.28154873032432E-03 0.96928910149956E-04 0.15651434810650E-02 0.22284920373076E-02
  38        8YZ      -.11131324184249E-04 -.30194194448880E-03 -.10076590497213E-03 0.19234665058297E-02 0.28669263269419E-02
  39 3   N  1S       -.51707594714331E-05 -.15363728825990E+00 -.29586729595067E-01 -.16557778302561E-01 0.42110070045683E-01
  40        2S       0.44313369236049E-05 0.32698650670856E+00 0.63837150356046E-01 0.33978287315227E-01 -.91953293118773E-01
  41        3S       0.70347970170768E-05 0.25180697517432E+00 0.70083291317615E-01 0.56891188228907E-01 -.12512677959032E+00
  42        4S       0.54078571001500E-02 0.13597158703837E+00 -.23481570965975E-01 -.15326151836098E+00 0.16410331839294E+00
  43        5S       0.54229254632713E-04 -.23138860466406E-01 -.12074823822242E-01 -.23041098336186E-02 0.34972188335547E-02
  44        6S       0.32177932229114E-04 0.47572577832153E-02 0.16389054823088E-02 0.81319713169793E-04 -.83994449521410E-03
  45        7PX      -.20397921552352E-04 -.79801738080206E-01 0.24320136031724E+00 0.39871897249095E-02 -.21751767348055E-01
  46        7PY      -.56089771949024E-04 -.56986699538085E-01 -.42662458426835E-01 0.11148945030847E+00 -.12050144706117E+00
  47        7PZ      -.33853955223746E-04 0.15167228065403E-01 -.17396734328377E-01 -.60738566450659E-01 0.88079847946198E-01
  48        8PX      0.53589092245787E-03 -.10825506840825E-01 0.46597137049072E-01 -.47264625418763E-02 -.48475760778211E-02
  49        8PY      0.14390649470706E-03 0.18812047518768E-01 -.25394608018151E-02 0.28850074678824E-01 -.39322798484768E-01
  50        8PZ      -.41160306007221E-04 -.13321291779781E-01 -.76150895891707E-02 -.16074570216560E-01 0.33222139665917E-01
  51        9PX      0.17191050313601E-02 -.62118118321470E-01 0.14399780634158E+00 -.18691175975665E-01 -.88778305050781E-02
  52        9PY      0.15378353216758E-02 -.66695967515090E-01 -.46246558748331E-01 -.31668891729731E-02 -.33071849101289E-02
  53        9PZ      -.58725486701637E-03 0.34976725034135E-01 0.29605043833978E-02 0.14933208611799E-01 -.13974983572596E-01
  54       10PX      -.21593260378929E-03 0.30974418799021E-02 -.93497967005996E-02 0.19162670098053E-02 -.62346152082385E-04
  55       10PY      0.11129862232091E-03 0.34768660498959E-02 -.27470260288876E-03 -.10898571219977E-02 0.91900837450793E-03
  56       10PZ      0.24121363977563E-03 -.19485582233284E-02 0.94070172321231E-03 -.69820285142798E-03 -.28391582135339E-03
  57       11PX      0.82722596831304E-04 -.84647017108825E-03 0.20159650284260E-02 -.63944079572978E-03 -.12614709709829E-03
  58       11PY      0.19284864803253E-04 -.78187568774037E-03 -.34869239066113E-03 0.50631842676924E-04 -.49403266710581E-03
  59       11PZ      -.47052870794328E-04 0.37137917735717E-03 -.14737403953317E-03 0.41987353212471E-03 -.49427541185066E-04
  60       12XX      -.49394944955911E-04 0.12635040560490E-01 -.66992550778918E-02 -.72441123399434E-02 0.10211454107736E-01
  61       12YY      -.11838772433393E-04 -.75381507132155E-02 0.81414041986180E-02 0.27207258688622E-02 -.15180453017824E-02
  62       12ZZ      -.18938686419509E-04 -.13269707229317E-01 -.81144756346362E-03 0.38178310817080E-02 -.36257295981841E-02
  63       12XY      -.71150796966628E-04 0.28453282142939E-02 -.22359423658573E-01 0.34934813163121E-02 0.10023353635195E-02
  64       12XZ      0.20148623997193E-04 -.38021677995661E-02 0.59233903832148E-02 -.19594468120920E-03 -.12777503817757E-02
  65       12YZ      -.26215197706415E-04 -.41452361100744E-02 -.10212539500742E-02 -.48927038974684E-02 0.56920426746669E-02
  66 4   H  1S       0.35874241040132E-04 0.13697454176290E-01 -.70490142318901E-03 0.55335238699488E-01 -.57143337666867E-01
  67        2S       0.48055517011341E-04 0.88712034012431E-02 0.75591055686386E-02 0.11973320844923E-01 -.16115526062658E-01
  68        3PX      -.10105227018405E-04 0.12676595865115E-02 0.92243183322565E-03 0.55241441102573E-02 -.44657140729641E-02
  69        3PY      -.26791300776083E-04 -.13820320925564E-02 0.21328787509974E-03 -.19383864599158E-02 0.26516918722180E-02
  70        3PZ      -.24722427325158E-04 0.44565449193838E-04 -.33273864897589E-03 -.14373826832132E-02 0.15350758647243E-02
  71 5   H  1S       0.21345830346692E-05 0.10688580194353E-01 0.65663274184365E-02 0.56856516922479E-01 -.62764178872390E-01
  72        2S       -.91404259272342E-05 0.54514703418797E-02 -.16164063846661E-02 0.17155408411460E-01 -.24160947378500E-01
  73        3PX      0.17815015050302E-04 0.97635109172168E-04 0.10338130193895E-03 0.10929676874899E-02 -.49918864798623E-03
  74        3PY      0.23301584932598E-04 0.22776014039354E-03 0.10569216533401E-03 0.30101106965514E-02 -.22254868583323E-02
  75        3PZ      0.14034099820641E-04 0.17631756993328E-02 0.70719209726827E-03 0.53208704533888E-02 -.54072823075697E-02
  76 6   O  1S       0.58137410958709E-05 -.13783974450125E+00 0.12221253214978E+00 0.27939289510952E-01 -.46919696729084E-01
  77        2S       0.11232780325729E-04 0.29708098811842E+00 -.26616357172464E+00 -.61270401345296E-01 0.10426171893598E+00
  78        3S       0.59252141484795E-04 0.28603408938313E+00 -.29848149688540E+00 -.79004237563978E-01 0.13517904808138E+00
  79        4S       0.10053157500775E-02 -.18689118967039E+00 0.17332705883439E+00 0.25270329446852E-01 -.57189178873100E-01
  80        5PX      0.11364150704040E-04 0.12765674081350E+00 -.57020827819795E-01 -.15451706847551E-01 0.64925038774198E-02
  81        5PY      0.21818387864441E-04 0.44336436200584E-01 -.37953661781377E-01 0.12570683245338E-01 -.20743243532074E-01
  82        5PZ      0.17626518250172E-04 -.30145061182894E-01 0.18367545149953E-01 -.66890078357143E-02 0.15727757258542E-01
  83        6PX      0.17784873506993E-03 0.48500249096333E-01 -.23979278663258E-01 -.13082183280323E-01 0.83621870539672E-02
  84        6PY      -.25115438272020E-04 0.13831787573242E-01 -.21621819007070E-01 0.29227856113928E-02 -.65651713758617E-02
  85        6PZ      -.13359290478481E-03 -.10780234102225E-01 0.10851627443939E-01 -.53479295824139E-03 0.40478999151893E-02
  86        7PX      0.15172488994728E-03 -.50598250749965E-01 0.37547391846487E-01 0.11323708815709E-01 -.16880616307707E-01
  87        7PY      -.49448863526058E-05 -.10117302368976E-01 0.27658069977855E-01 0.19273371860855E-02 -.42443750305838E-02
  88        7PZ      0.19503983083046E-03 0.84621767218466E-02 -.13830960746555E-01 -.44574854453846E-02 0.57783606325550E-02
  89        8XX      0.68693776711847E-04 0.13185849792636E-01 0.24371915029644E-02 -.22104896317785E-02 -.13726314407247E-03
  90        8YY      0.11819540168400E-04 -.89561335274923E-02 0.50196533104885E-02 0.32340705457862E-02 -.38999919957167E-02
  91        8ZZ      0.78601369926048E-05 -.81765527985664E-02 0.59311200098024E-02 0.16806777047653E-02 -.20198114428964E-02
  92        8XY      0.12754450672553E-05 0.90470686532255E-02 -.69849844955297E-02 0.13136468333835E-02 -.22980736273576E-02
  93        8XZ      -.24643887697248E-04 -.62516466150341E-02 0.28949822120252E-02 -.57372553302262E-03 0.18416480664326E-02
  94        8YZ      -.13302797454431E-04 -.10130587942212E-02 0.98808937663779E-03 -.12927293582356E-02 0.22702169769087E-02
  95 7   O  1S       -.71398957861173E-06 -.73135509096163E-01 -.16981131911688E+00 0.52171721237906E-01 -.40520481462172E-01
  96        2S       0.35228153814920E-05 0.15677553052669E+00 0.37012630043663E+00 -.11477503500555E+00 0.88700355468035E-01
  97        3S       0.12709763051721E-03 0.15108182645426E+00 0.40539024181651E+00 -.13400362307357E+00 0.11662696455227E+00
  98        4S       -.30255729175392E-02 -.53871497717774E-01 -.20002535059026E+00 0.64076190767281E-01 -.41683760126909E-01
  99        5PX      -.17129612440992E-04 -.60685895247316E-01 -.69464661285742E-01 0.22132509576433E-01 -.55837717559225E-02
 100        5PY      0.32354751820885E-04 0.44045361148319E-01 0.73206196620184E-01 -.27755391685680E-02 -.10228248106340E-01
 101        5PZ      -.19974715885913E-04 -.83062598574295E-02 -.16089427792641E-01 -.42486539839234E-02 0.11816769106677E-01
 102        6PX      0.17921840487652E-03 -.31049302767548E-01 -.33507845015486E-01 0.13815049232367E-01 -.77371123796731E-02
[...]
  22         O       -.15607207694952E+00 0.23154259226335E+01
  23         O       -.14656454913059E+00 0.22292593081583E+01
  24         O       -.11827066471857E+00 0.24104327370443E+01
  25         O       -.25872910283264E-01 0.23342513529883E+01
  26         V       0.71592837506585E-01 0.20083378739721E-01
  27         V       0.74365828752822E-01 0.20571068655041E-01
  28         V       0.74910645809693E-01 0.15126564996662E-01
  29         V       0.81583806677574E-01 0.16066390407920E-01
  30         V       0.15488565060037E+00 0.15638707882347E+00
  31         V       0.17240982146282E+00 0.13494818678880E+00
  32         V       0.17279656721091E+00 0.16831740431071E+00
  33         V       0.18581741978060E+00 0.11243386816684E+00
  34         V       0.20405172106134E+00 0.21640934951613E+00
  35         V       0.20826750045977E+00 0.21886261766198E+00
  36         V       0.23501379749566E+00 0.24300418974073E+00
  37         V       0.24486090877083E+00 0.23332518323945E+00
  38         V       0.24868917228561E+00 0.27330052181789E+00
  39         V       0.27200885373955E+00 0.31604141625212E+00
  40         V       0.27662125731746E+00 0.30089884429238E+00
  41         V       0.28583888902916E+00 0.51892003440275E+00
  42         V       0.28941752217511E+00 0.30424732158560E+00
  43         V       0.29701626637162E+00 0.38615337612716E+00
  44         V       0.32161845176299E+00 0.51677798020554E+00
  45         V       0.33371878576820E+00 0.45829758048586E+00
  46         V       0.36235276411011E+00 0.11894031618432E+01
  47         V       0.37498919116523E+00 0.88251828522584E+00
  48         V       0.38622375177494E+00 0.85698583727045E+00
  49         V       0.39081631690654E+00 0.11917988882619E+01
  50         V       0.41073791081435E+00 0.98909998289538E+00
  51         V       0.42468648583395E+00 0.86815506336624E+00
  52         V       0.43803965975781E+00 0.14509107224537E+01
  53         V       0.45187266117536E+00 0.93216531749477E+00
  54         V       0.46179788948525E+00 0.94388499651867E+00
  55         V       0.48258153066199E+00 0.10693054206376E+01
  56         V       0.49161558313072E+00 0.11482459418619E+01
  57         V       0.50144853975868E+00 0.10491822974383E+01
  58         V       0.51742327458887E+00 0.84454522431990E+00
  59         V       0.52665727253745E+00 0.86750160619014E+00
  60         V       0.53101904419761E+00 0.94949390044826E+00
  61         V       0.53553073294136E+00 0.95858111137209E+00
  62         V       0.54790278893465E+00 0.96157920436714E+00
  63         V       0.55567841194965E+00 0.10000321874162E+01
  64         V       0.55737036752757E+00 0.14500611715939E+01
  65         V       0.59756513443370E+00 0.23196376690184E+01
  66         V       0.62667609205298E+00 0.17652632983439E+01
  67         V       0.63913155206772E+00 0.20263469208650E+01
  68         V       0.67101445373358E+00 0.11972980502177E+01
  69         V       0.73669460186832E+00 0.14067812397031E+01
  70         V       0.85837457262049E+00 0.18221410587874E+01
  71         V       0.86684325241398E+00 0.23197046514536E+01
  72         V       0.88540012071851E+00 0.22086685174150E+01
  73         V       0.91659433158091E+00 0.20184821832686E+01
  74         V       0.92255076628208E+00 0.19803108107961E+01
  75         V       0.94911707376467E+00 0.20710673817860E+01
  76         V       0.97754340226204E+00 0.25924061163710E+01
  77         V       0.10307512812851E+01 0.22535760817865E+01
  78         V       0.11052778871800E+01 0.24677777148665E+01
  79         V       0.11476563279152E+01 0.24277135918161E+01
  80         V       0.11515619739080E+01 0.23587005622210E+01
  81         V       0.11931505310017E+01 0.23154020456518E+01
  82         V       0.12121094406588E+01 0.24932648716852E+01
  83         V       0.12462001776435E+01 0.24071139022661E+01
  84         V       0.12623467599103E+01 0.25516446431530E+01
  85         V       0.12728917070783E+01 0.23741062491324E+01
  86         V       0.13066867659270E+01 0.25573769581923E+01
  87         V       0.13526217562152E+01 0.24558544050024E+01
  88         V       0.13870907296255E+01 0.26169490627089E+01
  89         V       0.14238906676840E+01 0.28719728284655E+01
  90         V       0.14732922484519E+01 0.31457788302886E+01
  91         V       0.15089931704100E+01 0.30847772357985E+01
  92         V       0.15271836567783E+01 0.33592505985513E+01
  93         V       0.15612168344112E+01 0.29429744684638E+01
  94         V       0.15688170972209E+01 0.30357016347503E+01
  95         V       0.16035696976743E+01 0.32756911783698E+01
  96         V       0.16089530822675E+01 0.32362085476060E+01
  97         V       0.16464049082338E+01 0.26052117244977E+01
  98         V       0.16656829148857E+01 0.26389553836907E+01
  99         V       0.16766710280652E+01 0.27536558360598E+01
 100         V       0.17210917898354E+01 0.25353143889122E+01
 101         V       0.17793450209628E+01 0.26174247240110E+01
 102         V       0.18402460034546E+01 0.26613754570507E+01
 103         V       0.19120781216068E+01 0.27815345820981E+01
 104         V       0.19737000768637E+01 0.29365871546504E+01
 105         V       0.19888164196686E+01 0.29687112842205E+01
 106         V       0.20179953763521E+01 0.29138302167137E+01
 107         V       0.20477583919908E+01 0.29653796213782E+01
 108         V       0.20956466082739E+01 0.31832342018943E+01
 109         V       0.21286653065722E+01 0.30181999608588E+01
 110         V       0.21509436674994E+01 0.28722307488078E+01
 111         V       0.21554320607854E+01 0.30136666938204E+01
 112         V       0.21752329367838E+01 0.31672540310410E+01
 113         V       0.21915446030125E+01 0.30748283166937E+01
 114         V       0.22127024003525E+01 0.30290706956195E+01
 115         V       0.22275836996946E+01 0.30775762735644E+01
 116         V       0.22534120471130E+01 0.31256254095892E+01
 117         V       0.22815676837517E+01 0.31562985997038E+01
 118         V       0.23230951014855E+01 0.34073535765479E+01
 119         V       0.23548531677806E+01 0.33717091495183E+01
 120         V       0.23917654636756E+01 0.32608422434362E+01
 121         V       0.24595397984553E+01 0.33403329911707E+01
 122         V       0.24678094478621E+01 0.33510614229876E+01
 123         V       0.25005291106880E+01 0.32587747244846E+01
 124         V       0.25174065451405E+01 0.33293870826603E+01
 125         V       0.25336483309212E+01 0.33081866020715E+01
 126         V       0.25890385865681E+01 0.35474713855020E+01
 127         V       0.26298897041909E+01 0.36189330958434E+01
 128         V       0.26660602627459E+01 0.35187724996088E+01
 129         V       0.27027038547420E+01 0.36183672816956E+01
 130         V       0.27412184782152E+01 0.35101029139342E+01
 131         V       0.27651544936205E+01 0.36533812146250E+01
 132         V       0.28039709298365E+01 0.38034621402778E+01
 133         V       0.28519254657907E+01 0.37346748279906E+01
 134         V       0.28905288393180E+01 0.36087394394060E+01
 135         V       0.29137903186527E+01 0.36862074551356E+01
 136         V       0.29490625688170E+01 0.38841827254821E+01
 137         V       0.29883961713451E+01 0.38491233213194E+01
 138         V       0.30236370850241E+01 0.41804018664776E+01
 139         V       0.30453110526098E+01 0.40230748567542E+01
 140         V       0.31073685216906E+01 0.40216137247858E+01
 141         V       0.32098723582807E+01 0.44539878733634E+01
 142         V       0.32431492638746E+01 0.40662147836573E+01
 143         V       0.33165529080623E+01 0.47556037510905E+01
 144         V       0.33607982579209E+01 0.47381005460169E+01
 145         V       0.34345810632148E+01 0.46427592905209E+01
 146         V       0.35185790485607E+01 0.49566056455818E+01
 147         V       0.35940697263907E+01 0.48565237631404E+01
 148         V       0.36472038008501E+01 0.49138990040443E+01
 149         V       0.36841038962462E+01 0.50884323999019E+01
 150         V       0.37204605996008E+01 0.51583870288586E+01
 151         V       0.38990622443172E+01 0.55437674450017E+01
 152         V       0.44156920282171E+01 0.10319729285678E+02
 153         V       0.46051550171006E+01 0.10830545204143E+02
 154         V       0.46441246305390E+01 0.10593575444138E+02
 155         V       0.47687414979191E+01 0.10357260486791E+02
 156         V       0.48479328620411E+01 0.12101794677053E+02
 157         V       0.48933532154232E+01 0.10443639903198E+02
 Orbital energies and kinetic energies (beta):
                                 1                 2
   1         O       -.19043289502314E+02 0.29040809794109E+02
   2         O       -.19030830621907E+02 0.29042847903731E+02
   3         O       -.14370919913714E+02 0.21988927393430E+02
   4         O       -.10191547856485E+02 0.15908169850160E+02
   5         O       -.10176760035577E+02 0.15905970513697E+02
   6         O       -.10153852468834E+02 0.15898309683737E+02
   7         O       -.98899736241332E+00 0.23911325671837E+01
   8         O       -.81721480843047E+00 0.27302360259920E+01
   9         O       -.74285490618947E+00 0.14388356274192E+01
  10         O       -.66117345337344E+00 0.14895722255145E+01
  11         O       -.57706826325637E+00 0.16392021096990E+01
  12         O       -.45914616604402E+00 0.19837971143529E+01
  13         O       -.40088406153143E+00 0.99136758956542E+00
  14         O       -.39427773254856E+00 0.10594298262177E+01
  15         O       -.36208976242359E+00 0.15392433360173E+01
  16         O       -.34468675578330E+00 0.14686506920071E+01
  17         O       -.32917327768093E+00 0.13806318767097E+01
  18         O       -.30068878944882E+00 0.18566039369212E+01
  19         O       -.28543396540338E+00 0.14043340812085E+01
  20         O       -.27082295805640E+00 0.13668275705972E+01
  21         O       -.23658054693189E+00 0.14651068718483E+01
  22         O       -.13981190708829E+00 0.21954011064901E+01
  23         O       -.11277704648083E+00 0.23528180170287E+01
  24         O       -.10698929399645E+00 0.22576927738775E+01
  25         V       0.80872189766260E-01 0.16153966384646E-01
  26         V       0.84305771135017E-01 0.15536521223116E-01
  27         V       0.86785921224646E-01 0.15300474224642E-01
  28         V       0.97525928991130E-01 0.15542886828191E-01
  29         V       0.16442098108656E+00 0.15970944293047E+00
  30         V       0.18186671720744E+00 0.19282855548700E+00
  31         V       0.18371084775234E+00 0.14892378575266E+00
  32         V       0.19848277149394E+00 0.15310289320770E+00
  33         V       0.21329347027603E+00 0.24925711675079E+00
  34         V       0.21507065725032E+00 0.20967487960729E+00
  35         V       0.23821705791894E+00 0.26856017842643E+00
  36         V       0.24130864386103E+00 0.90555176892210E+00
  37         V       0.24873440261497E+00 0.24633685622452E+00
  38         V       0.25998319675215E+00 0.99533574238720E+00
  39         V       0.27795021165786E+00 0.34257218081030E+00
  40         V       0.28374165243687E+00 0.43069523928176E+00
  41         V       0.29162427185429E+00 0.43094267560438E+00
  42         V       0.29439923058305E+00 0.48895133917861E+00
  43         V       0.30206974753761E+00 0.46215431274139E+00
  44         V       0.32639033542837E+00 0.50945923453291E+00
  45         V       0.33753126332375E+00 0.44566795218487E+00
  46         V       0.36668263265033E+00 0.10075634151784E+01
  47         V       0.37747996121529E+00 0.94036592081700E+00
  48         V       0.38908819217561E+00 0.89343186416917E+00
  49         V       0.39539311451650E+00 0.11612799089020E+01
  50         V       0.41335388102903E+00 0.92261953575323E+00
  51         V       0.42855142919349E+00 0.90894242937727E+00
  52         V       0.44237186621877E+00 0.14189695954336E+01
  53         V       0.45470354905803E+00 0.91779229996995E+00
  54         V       0.46490037307124E+00 0.98056949945547E+00
  55         V       0.48615761391757E+00 0.10708812450248E+01
  56         V       0.49478582322448E+00 0.11925950037095E+01
  57         V       0.50352374481300E+00 0.10321659744250E+01
  58         V       0.51913744921520E+00 0.85610155829381E+00
  59         V       0.52947614206542E+00 0.87677309254075E+00
  60         V       0.53372852221033E+00 0.10071085035471E+01
  61         V       0.53810627890692E+00 0.96999381149723E+00
  62         V       0.54957073743085E+00 0.10314206907109E+01
  63         V       0.55733140529846E+00 0.97898859539557E+00
  64         V       0.56239934556436E+00 0.13916548294825E+01
  65         V       0.60538574971838E+00 0.23704983518944E+01
  66         V       0.63161317555408E+00 0.13214016643995E+01
  67         V       0.64803847039864E+00 0.25470778311796E+01
  68         V       0.67321152993878E+00 0.12545142008541E+01
  69         V       0.74033593322940E+00 0.14455494420069E+01
  70         V       0.85892960602797E+00 0.18219539129683E+01
  71         V       0.86886408778151E+00 0.23358276818138E+01
  72         V       0.88582841650792E+00 0.22074594298530E+01
  73         V       0.91716991199770E+00 0.20254526862986E+01
  74         V       0.92379829915105E+00 0.19866629923603E+01
  75         V       0.94975346334649E+00 0.20682757216071E+01
  76         V       0.97888985327549E+00 0.26138311391328E+01
  77         V       0.10318147259253E+01 0.22521019089936E+01
  78         V       0.11074590894601E+01 0.24689595193151E+01
  79         V       0.11529556153465E+01 0.23645627581502E+01
  80         V       0.11586309291783E+01 0.24074814991046E+01
  81         V       0.11947417167176E+01 0.23174113974643E+01
  82         V       0.12226004129617E+01 0.24739730975214E+01
  83         V       0.12471277434144E+01 0.24045256562657E+01
  84         V       0.12690935381814E+01 0.25469853731570E+01
  85         V       0.12832294441200E+01 0.25346601373437E+01
  86         V       0.13087029114760E+01 0.25585626559870E+01
  87         V       0.13548061039166E+01 0.24593359950911E+01
  88         V       0.13882473906818E+01 0.26092699778004E+01
  89         V       0.14286268201395E+01 0.28702362247941E+01
  90         V       0.14805928745808E+01 0.30624029781377E+01
  91         V       0.15206578579204E+01 0.31193583785474E+01
  92         V       0.15384157578840E+01 0.34354405768445E+01
  93         V       0.15670847308545E+01 0.29478298141750E+01
  94         V       0.15789634756562E+01 0.31625516093537E+01
  95         V       0.16094600309535E+01 0.34663201637570E+01
  96         V       0.16138242010763E+01 0.31320074980178E+01
  97         V       0.16490950475862E+01 0.25851264835091E+01
  98         V       0.16729323942617E+01 0.26581311869696E+01
  99         V       0.16822959874932E+01 0.27388679135349E+01
 100         V       0.17301976413188E+01 0.25322788332276E+01
 101         V       0.17908477728967E+01 0.26180528262530E+01
 102         V       0.18415856710062E+01 0.26635586359489E+01
 103         V       0.19164854538589E+01 0.27817168313581E+01
 104         V       0.19762709526945E+01 0.29658877080005E+01
 105         V       0.19945854991089E+01 0.29521223936983E+01
 106         V       0.20231901196312E+01 0.29159839262709E+01
 107         V       0.20512661902689E+01 0.29615476078776E+01
 108         V       0.21020300460016E+01 0.31772406525327E+01
 109         V       0.21329771391298E+01 0.30257320308586E+01
 110         V       0.21597145389078E+01 0.30030340725687E+01
 111         V       0.21617550798660E+01 0.29029707075986E+01
 112         V       0.21791496150273E+01 0.31469875610691E+01
 113         V       0.21971620324012E+01 0.31028212882255E+01
 114         V       0.22167304301287E+01 0.30301978578429E+01
 115         V       0.22363958438053E+01 0.30553770168517E+01
 116         V       0.22631045825756E+01 0.31336074008106E+01
 117         V       0.22842800273949E+01 0.31423364491054E+01
 118         V       0.23309852481937E+01 0.33632019426171E+01
 119         V       0.23591866650515E+01 0.33778583747460E+01
 120         V       0.23938642312440E+01 0.32736443179563E+01
 121         V       0.24610746273149E+01 0.33312286899368E+01
 122         V       0.24709854475433E+01 0.33352532938714E+01
 123         V       0.25028317767830E+01 0.32541511362071E+01
 124         V       0.25258018394961E+01 0.33344297349457E+01
 125         V       0.25371164151801E+01 0.33171141785056E+01
 126         V       0.25956868337991E+01 0.35495956867201E+01
 127         V       0.26340669795631E+01 0.36120183626047E+01
 128         V       0.26722001894782E+01 0.35224797293596E+01
 129         V       0.27072410444461E+01 0.36299926468023E+01
 130         V       0.27436543211446E+01 0.35161738047260E+01
 131         V       0.27716224775312E+01 0.36246796836475E+01
 132         V       0.28179961476736E+01 0.38439249386757E+01
 133         V       0.28611936860855E+01 0.37207912151278E+01
 134         V       0.28934244810345E+01 0.36155110965976E+01
 135         V       0.29163380234383E+01 0.37094848949474E+01
 136         V       0.29538771665596E+01 0.38781351929859E+01
 137         V       0.29898279690447E+01 0.38529561939247E+01
 138         V       0.30323580600009E+01 0.41868198588877E+01
 139         V       0.30487389224456E+01 0.40109896777951E+01
 140         V       0.31084906187535E+01 0.40297447464979E+01
 141         V       0.32166543320626E+01 0.44363215158751E+01
 142         V       0.32440165635438E+01 0.40722026083122E+01
 143         V       0.33259423086663E+01 0.47571109467551E+01
 144         V       0.33677595742276E+01 0.47479234053559E+01
 145         V       0.34377394644829E+01 0.46416535019804E+01
 146         V       0.35188267149860E+01 0.49558291095248E+01
 147         V       0.35952611211460E+01 0.48605984818725E+01
 148         V       0.36482184338290E+01 0.49100709101699E+01
 149         V       0.36842995797907E+01 0.50891908818608E+01
 150         V       0.37207537398066E+01 0.51572652459403E+01
 151         V       0.38991330794633E+01 0.55432830722108E+01
 152         V       0.44344814921554E+01 0.10343732784828E+02
 153         V       0.46109108810150E+01 0.10681235174393E+02
 154         V       0.46479250299901E+01 0.10740852218301E+02
 155         V       0.47696667462017E+01 0.10364629885314E+02
 156         V       0.48565900228339E+01 0.12094440395423E+02
 157         V       0.48941828700260E+01 0.10458547445570E+02
 Total kinetic energy from orbitals= 3.202879270267D+02
 Leave Link  601 at Fri Nov  4 21:14:16 2022, MaxMem= 3276800000 cpu:       1.6
 (Enter /local/g09-source/g09/l9999.exe)

 Test job not archived.
 1\1\GINC-WUX25\SP\UTD-wB97XD-Full\Gen\C3H7N1O2(1-,2)\ISSLERK\04-Nov-20
 22\0\\#p TD(full,nstates=1) wB97XD/GEN 6D Iop(6/7=3) Iop(9/40=14) scf(
 maxcyc=200,conver=8) nosym Guess(Read) Geom=AllCheck\\Comment\\-1,2\C,
 -5.051791109,0.471307503,0.811591314\C,-3.760025166,1.210425429,0.8866
 62429\N,-5.129081234,-0.718194566,1.739859622\H,-6.049856578,1.0234074
 11,1.118451159\H,-5.120658506,-0.028978135,-0.262567626\O,-6.306783913
 ,-1.120372335,2.00389451\O,-4.064016976,-1.578084871,1.904624533\C,-3.
 265899689,1.603952933,2.435795414\H,-2.987308002,0.596531611,0.3144733
 57\H,-3.813488352,2.088379959,0.19512627\H,-3.148987868,0.692421568,3.
 033770976\H,-2.5464319,2.375821606,2.406515728\H,-4.119796457,2.046167
 47,2.73432043\\Version=EM64L-G09RevA.02\HF=-323.5262172\S2=0.754779\S2
 -1=0.\S2A=0.750019\RMSD=1.491e-09\PG=C01 [X(C3H7N1O2)]\\@


 THAT'S WHAT MAKES US A GREAT COUNTRY.
 THE LITTLE THINGS ARE SERIOUS AND THE BIG ONES ARE NOT.
           WILL ROGERS
 Job cpu time:  0 days  0 hours 23 minutes 33.8 seconds.
 File lengths (MBytes):  RWF=     40 Int=      0 D2E=      0 Chk=      5 Scr=      1
 Normal termination of Gaussian 09 at Fri Nov  4 21:14:16 2022.
