 Entering Gaussian System, Link 0=g09
 Input=an.in2
 Output=an.log2
 Initial command:
 /local/g09-source/g09/l1.exe /scratch/1236642/TRAJ_10/Gau-39172.inp -scrdir=/scratch/1236642/TRAJ_10/
 Entering Link 1 = /local/g09-source/g09/l1.exe PID=     39174.
  
 Copyright (c) 1988,1990,1992,1993,1995,1998,2003,2009, Gaussian, Inc.
                  All Rights Reserved.
  
 This is part of the Gaussian(R) 09 program.  It is based on
 the Gaussian(R) 03 system (copyright 2003, Gaussian, Inc.),
 the Gaussian(R) 98 system (copyright 1998, Gaussian, Inc.),
 the Gaussian(R) 94 system (copyright 1995, Gaussian, Inc.),
 the Gaussian 92(TM) system (copyright 1992, Gaussian, Inc.),
 the Gaussian 90(TM) system (copyright 1990, Gaussian, Inc.),
 the Gaussian 88(TM) system (copyright 1988, Gaussian, Inc.),
 the Gaussian 86(TM) system (copyright 1986, Carnegie Mellon
 University), and the Gaussian 82(TM) system (copyright 1983,
 Carnegie Mellon University). Gaussian is a federally registered
 trademark of Gaussian, Inc.
  
 This software contains proprietary and confidential information,
 including trade secrets, belonging to Gaussian, Inc.
  
 This software is provided under written license and may be
 used, copied, transmitted, or stored only in accord with that
 written license.
  
 The following legend is applicable only to US Government
 contracts under FAR:
  
                    RESTRICTED RIGHTS LEGEND
  
 Use, reproduction and disclosure by the US Government is
 subject to restrictions as set forth in subparagraphs (a)
 and (c) of the Commercial Computer Software - Restricted
 Rights clause in FAR 52.227-19.
  
 Gaussian, Inc.
 340 Quinnipiac St., Bldg. 40, Wallingford CT 06492
  
  
 ---------------------------------------------------------------
 Warning -- This program may not be used in any manner that
 competes with the business of Gaussian, Inc. or will provide
 assistance to any competitor of Gaussian, Inc.  The licensee
 of this program is prohibited from giving any competitor of
 Gaussian, Inc. access to this program.  By using this program,
 the user acknowledges that Gaussian, Inc. is engaged in the
 business of creating and licensing software in the field of
 computational chemistry and represents and warrants to the
 licensee that it is not a competitor of Gaussian, Inc. and that
 it will not use this program in any manner prohibited above.
 ---------------------------------------------------------------
  

 Cite this work as:
 Gaussian 09, Revision A.02,
 M. J. Frisch, G. W. Trucks, H. B. Schlegel, G. E. Scuseria, 
 M. A. Robb, J. R. Cheeseman, G. Scalmani, V. Barone, B. Mennucci, 
 G. A. Petersson, H. Nakatsuji, M. Caricato, X. Li, H. P. Hratchian, 
 A. F. Izmaylov, J. Bloino, G. Zheng, J. L. Sonnenberg, M. Hada, 
 M. Ehara, K. Toyota, R. Fukuda, J. Hasegawa, M. Ishida, T. Nakajima, 
 Y. Honda, O. Kitao, H. Nakai, T. Vreven, J. A. Montgomery, Jr., 
 J. E. Peralta, F. Ogliaro, M. Bearpark, J. J. Heyd, E. Brothers, 
 K. N. Kudin, V. N. Staroverov, R. Kobayashi, J. Normand, 
 K. Raghavachari, A. Rendell, J. C. Burant, S. S. Iyengar, J. Tomasi, 
 M. Cossi, N. Rega, J. M. Millam, M. Klene, J. E. Knox, J. B. Cross, 
 V. Bakken, C. Adamo, J. Jaramillo, R. Gomperts, R. E. Stratmann, 
 O. Yazyev, A. J. Austin, R. Cammi, C. Pomelli, J. W. Ochterski, 
 R. L. Martin, K. Morokuma, V. G. Zakrzewski, G. A. Voth, 
 P. Salvador, J. J. Dannenberg, S. Dapprich, A. D. Daniels, 
 O. Farkas, J. B. Foresman, J. V. Ortiz, J. Cioslowski, 
 and D. J. Fox, Gaussian, Inc., Wallingford CT, 2009.
 
 ******************************************
 Gaussian 09:  EM64L-G09RevA.02 11-Jun-2009
                 4-Nov-2022 
 ******************************************
 %Chk=an.chk
 %Nproc=10
 Will use up to   10 processors via shared memory.
 %Mem=25000Mb
 ----------------------------------------------------------------------
 #p wB97XD/GEN 6D Iop(6/7=3) Iop(9/40=14) scf(maxcyc=200,conver=8) nosy
 m Guess(Read,TCheck) GFInput Force
 ----------------------------------------------------------------------
 1/10=7,30=1,38=1/1,3;
 2/12=2,15=1,17=6,18=5,40=1/2;
 3/5=7,8=2,11=2,16=1,24=10,25=1,30=1,71=1,74=-58/1,2,3;
 4/5=102/1;
 5/5=2,6=8,7=200/2;
 6/7=3,8=2,9=2,10=2,28=1/1;
 7/29=1,30=1/1,2,3,16;
 1/10=7,30=1/3;
 99//99;
 Leave Link    1 at Fri Nov  4 21:01:44 2022, MaxMem= 3276800000 cpu:       0.6
 (Enter /local/g09-source/g09/l101.exe)
 -------
 Comment
 -------
 Symbolic Z-matrix:
 Charge = -1 Multiplicity = 2
 C                    -5.05123   0.47078   0.80959 
 C                    -3.76015   1.21132   0.8893 
 N                    -5.1288   -0.71709   1.73989 
 H                    -6.04691   1.01447   1.11777 
 H                    -5.12051  -0.01784  -0.25365 
 O                    -6.30738  -1.12064   2.00431 
 O                    -4.06379  -1.57858   1.90452 
 C                    -3.26639   1.60393   2.43524 
 H                    -2.99065   0.58926   0.30869 
 H                    -3.8104    2.0926    0.19483 
 H                    -3.14365   0.6948    3.03959 
 H                    -2.54814   2.36898   2.39674 
 H                    -4.12357   2.04425   2.72983 
 
 NAtoms=     13 NQM=     13 NQMF=      0 NMic=      0 NMicF=      0 NTot=     13.
                    Isotopes and Nuclear Properties:
 (Nuclear quadrupole moments (NQMom) in fm**2, nuclear magnetic moments (NMagM)
  in nuclear magnetons)

  Atom         1           2           3           4           5           6           7           8           9          10
 IAtWgt=          12          12          14           1           1          16          16          12           1           1
 AtmWgt=  12.0000000  12.0000000  14.0030740   1.0078250   1.0078250  15.9949146  15.9949146  12.0000000   1.0078250   1.0078250
 NucSpn=           0           0           2           1           1           0           0           0           1           1
 AtZEff=   0.0000000   0.0000000   0.0000000   0.0000000   0.0000000   0.0000000   0.0000000   0.0000000   0.0000000   0.0000000
 NQMom=    0.0000000   0.0000000   2.0440000   0.0000000   0.0000000   0.0000000   0.0000000   0.0000000   0.0000000   0.0000000
 NMagM=    0.0000000   0.0000000   0.4037610   2.7928460   2.7928460   0.0000000   0.0000000   0.0000000   2.7928460   2.7928460

  Atom        11          12          13
 IAtWgt=           1           1           1
 AtmWgt=   1.0078250   1.0078250   1.0078250
 NucSpn=           1           1           1
 AtZEff=   0.0000000   0.0000000   0.0000000
 NQMom=    0.0000000   0.0000000   0.0000000
 NMagM=    2.7928460   2.7928460   2.7928460
 Leave Link  101 at Fri Nov  4 21:01:44 2022, MaxMem= 3276800000 cpu:       0.8
 (Enter /local/g09-source/g09/l103.exe)

 GradGradGradGradGradGradGradGradGradGradGradGradGradGradGradGradGradGrad
 Berny optimization.
 Initialization pass.
 Trust Radius=3.00D-01 FncErr=1.00D-07 GrdErr=1.00D-07
 Number of steps in this run=   2 maximum allowed number of steps=   2.
 GradGradGradGradGradGradGradGradGradGradGradGradGradGradGradGradGradGrad

 Leave Link  103 at Fri Nov  4 21:01:44 2022, MaxMem= 3276800000 cpu:       0.2
 (Enter /local/g09-source/g09/l202.exe)
                          Input orientation:                          
 ---------------------------------------------------------------------
 Center     Atomic      Atomic             Coordinates (Angstroms)
 Number     Number       Type             X           Y           Z
 ---------------------------------------------------------------------
      1          6           0       -5.051226    0.470784    0.809591
      2          6           0       -3.760154    1.211317    0.889299
      3          7           0       -5.128800   -0.717089    1.739894
      4          1           0       -6.046911    1.014469    1.117772
      5          1           0       -5.120514   -0.017836   -0.253650
      6          8           0       -6.307385   -1.120645    2.004308
      7          8           0       -4.063791   -1.578583    1.904516
      8          6           0       -3.266390    1.603928    2.435240
      9          1           0       -2.990650    0.589255    0.308686
     10          1           0       -3.810403    2.092605    0.194831
     11          1           0       -3.143649    0.694804    3.039587
     12          1           0       -2.548135    2.368979    2.396744
     13          1           0       -4.123568    2.044252    2.729828
 ---------------------------------------------------------------------
                    Distance matrix (angstroms):
                    1          2          3          4          5
     1  C    0.000000
     2  C    1.490507   0.000000
     3  N    1.510803   2.513057   0.000000
     4  H    1.175567   2.306557   2.056272   0.000000
     5  H    1.172191   2.160493   2.112639   1.950555   0.000000
     6  O    2.353281   3.629005   1.273512   2.326479   2.779069
     7  O    2.524637   2.984360   1.379679   3.357923   2.865358
     8  C    2.666907   1.669695   3.056010   3.132807   3.646646
     9  H    2.123891   1.147262   2.885581   3.190009   2.284972
    10  H    2.132574   1.123156   3.466954   2.648805   2.524180
    11  H    2.943114   2.295779   2.761063   3.496354   3.906566
    12  H    3.519611   2.254232   4.076163   3.963824   4.397568
    13  H    2.650219   2.052656   3.100882   2.712642   3.761283
                    6          7          8          9         10
     6  O    0.000000
     7  O    2.292024   0.000000
     8  C    4.105685   3.323536   0.000000
     9  H    4.098734   2.897900   2.372304   0.000000
    10  H    4.453549   4.057690   2.356733   1.716106   0.000000
    11  H    3.791686   2.702468   1.098548   2.737219   3.238989
    12  H    5.144263   4.257082   1.050083   2.779069   2.553062
    13  H    3.913056   3.716133   1.007681   3.043427   2.554725
                   11         12         13
    11  H    0.000000
    12  H    1.889642   0.000000
    13  H    1.696233   1.642675   0.000000
 Symmetry turned off by external request.
 Stoichiometry    C3H7NO2(1-,2)
 Framework group  C1[X(C3H7NO2)]
 Deg. of freedom    33
 Full point group                 C1      NOp   1
 Rotational constants (GHZ):      5.8771610      2.3460605      2.0950849
 Leave Link  202 at Fri Nov  4 21:01:44 2022, MaxMem= 3276800000 cpu:       0.0
 (Enter /local/g09-source/g09/l301.exe)
 General basis read from cards:  (6D, 7F)
 Centers:   4  5  9 10 11 12 13
 S 3 1.0
     Exponent=  1.8731136960D+01 Coefficients=  3.3494604000D-02
     Exponent=  2.8253943650D+00 Coefficients=  2.3472695400D-01
     Exponent=  6.4012169200D-01 Coefficients=  8.1375732600D-01
 S 1 1.0
     Exponent=  1.6127775900D-01 Coefficients=  1.0000000000D+00
 P 1 1.0
     Exponent=  1.1000000000D+00 Coefficients=  1.0000000000D+00
 ****
 Centers:   1  2  8
 S 6 1.0
     Exponent=  3.0475248800D+03 Coefficients=  1.8347370000D-03
     Exponent=  4.5736951800D+02 Coefficients=  1.4037323000D-02
     Exponent=  1.0394868500D+02 Coefficients=  6.8842622000D-02
     Exponent=  2.9210155300D+01 Coefficients=  2.3218444300D-01
     Exponent=  9.2866629600D+00 Coefficients=  4.6794134800D-01
     Exponent=  3.1639269600D+00 Coefficients=  3.6231198500D-01
 S 3 1.0
     Exponent=  7.8682723500D+00 Coefficients= -1.1933242000D-01
     Exponent=  1.8812885400D+00 Coefficients= -1.6085415200D-01
     Exponent=  5.4424925800D-01 Coefficients=  1.1434564380D+00
 S 1 1.0
     Exponent=  1.6871447800D-01 Coefficients=  1.0000000000D+00
 S 1 1.0
     Exponent=  4.3800000000D-02 Coefficients=  1.0000000000D+00
 P 3 1.0
     Exponent=  7.8682723500D+00 Coefficients=  6.8999067000D-02
     Exponent=  1.8812885400D+00 Coefficients=  3.1642396100D-01
     Exponent=  5.4424925800D-01 Coefficients=  7.4430829100D-01
 P 1 1.0
     Exponent=  1.6871447800D-01 Coefficients=  1.0000000000D+00
 P 1 1.0
     Exponent=  4.3800000000D-02 Coefficients=  1.0000000000D+00
 D 1 1.0
     Exponent=  8.0000000000D-01 Coefficients=  1.0000000000D+00
 ****
 Centers:   3
 S 6 1.0
     Exponent=  4.1735114600D+03 Coefficients=  1.8347720000D-03
     Exponent=  6.2745791100D+02 Coefficients=  1.3994627000D-02
     Exponent=  1.4290209300D+02 Coefficients=  6.8586552000D-02
     Exponent=  4.0234329300D+01 Coefficients=  2.3224087300D-01
     Exponent=  1.2820212900D+01 Coefficients=  4.6906994800D-01
     Exponent=  4.3904370100D+00 Coefficients=  3.6045519900D-01
 S 3 1.0
     Exponent=  1.1626361860D+01 Coefficients= -1.1496118200D-01
     Exponent=  2.7162798070D+00 Coefficients= -1.6911747900D-01
     Exponent=  7.7221839700D-01 Coefficients=  1.1458519470D+00
 S 1 1.0
     Exponent=  2.1203149700D-01 Coefficients=  1.0000000000D+00
 S 1 1.0
     Exponent=  6.3900000000D-02 Coefficients=  1.0000000000D+00
 S 1 1.0
     Exponent=  1.8257143000D-02 Coefficients=  1.0000000000D+00
 S 1 1.0
     Exponent=  5.2163270000D-03 Coefficients=  1.0000000000D+00
 P 3 1.0
     Exponent=  1.1626361860D+01 Coefficients=  6.7579744000D-02
     Exponent=  2.7162798070D+00 Coefficients=  3.2390729600D-01
     Exponent=  7.7221839700D-01 Coefficients=  7.4089514000D-01
 P 1 1.0
     Exponent=  2.1203149700D-01 Coefficients=  1.0000000000D+00
 P 1 1.0
     Exponent=  6.3900000000D-02 Coefficients=  1.0000000000D+00
 P 1 1.0
     Exponent=  1.8257143000D-02 Coefficients=  1.0000000000D+00
 P 1 1.0
     Exponent=  5.2163270000D-03 Coefficients=  1.0000000000D+00
 D 1 1.0
     Exponent=  8.0000000000D-01 Coefficients=  1.0000000000D+00
 ****
 Centers:   6  7
 S 6 1.0
     Exponent=  5.4846716600D+03 Coefficients=  1.8310740000D-03
     Exponent=  8.2523494600D+02 Coefficients=  1.3950172000D-02
     Exponent=  1.8804695800D+02 Coefficients=  6.8445078000D-02
     Exponent=  5.2964500000D+01 Coefficients=  2.3271433600D-01
     Exponent=  1.6897570400D+01 Coefficients=  4.7019289800D-01
     Exponent=  5.7996353400D+00 Coefficients=  3.5852085300D-01
 S 3 1.0
     Exponent=  1.5539616250D+01 Coefficients= -1.1077755000D-01
     Exponent=  3.5999335860D+00 Coefficients= -1.4802626300D-01
     Exponent=  1.0137617500D+00 Coefficients=  1.1307670150D+00
 S 1 1.0
     Exponent=  2.7000582300D-01 Coefficients=  1.0000000000D+00
 S 1 1.0
     Exponent=  8.4500000000D-02 Coefficients=  1.0000000000D+00
 P 3 1.0
     Exponent=  1.5539616250D+01 Coefficients=  7.0874268000D-02
     Exponent=  3.5999335860D+00 Coefficients=  3.3975283900D-01
     Exponent=  1.0137617500D+00 Coefficients=  7.2715857700D-01
 P 1 1.0
     Exponent=  2.7000582300D-01 Coefficients=  1.0000000000D+00
 P 1 1.0
     Exponent=  8.4500000000D-02 Coefficients=  1.0000000000D+00
 D 1 1.0
     Exponent=  8.0000000000D-01 Coefficients=  1.0000000000D+00
 ****
 Ernie: Thresh=  0.10000D-02 Tol=  0.10000D-05 Strict=F.
 AO basis set in the form of general basis input (Overlap normalization):
      1 0
 S   6 1.00       0.000000000000
      0.3047524880D+04  0.1834737002D-02
      0.4573695180D+03  0.1403732301D-01
      0.1039486850D+03  0.6884262207D-01
      0.2921015530D+02  0.2321844432D+00
      0.9286662960D+01  0.4679413485D+00
      0.3163926960D+01  0.3623119854D+00
 S   3 1.00       0.000000000000
      0.7868272350D+01 -0.1193324200D+00
      0.1881288540D+01 -0.1608541520D+00
      0.5442492580D+00  0.1143456438D+01
 S   1 1.00       0.000000000000
      0.1687144780D+00  0.1000000000D+01
 S   1 1.00       0.000000000000
      0.4380000000D-01  0.1000000000D+01
 P   3 1.00       0.000000000000
      0.7868272350D+01  0.6899906698D-01
      0.1881288540D+01  0.3164239609D+00
      0.5442492580D+00  0.7443082908D+00
 P   1 1.00       0.000000000000
      0.1687144780D+00  0.1000000000D+01
 P   1 1.00       0.000000000000
      0.4380000000D-01  0.1000000000D+01
 D   1 1.00       0.000000000000
      0.8000000000D+00  0.1000000000D+01
 ****
      2 0
 S   6 1.00       0.000000000000
      0.3047524880D+04  0.1834737002D-02
      0.4573695180D+03  0.1403732301D-01
      0.1039486850D+03  0.6884262207D-01
      0.2921015530D+02  0.2321844432D+00
      0.9286662960D+01  0.4679413485D+00
      0.3163926960D+01  0.3623119854D+00
 S   3 1.00       0.000000000000
      0.7868272350D+01 -0.1193324200D+00
      0.1881288540D+01 -0.1608541520D+00
      0.5442492580D+00  0.1143456438D+01
 S   1 1.00       0.000000000000
      0.1687144780D+00  0.1000000000D+01
 S   1 1.00       0.000000000000
      0.4380000000D-01  0.1000000000D+01
 P   3 1.00       0.000000000000
      0.7868272350D+01  0.6899906698D-01
      0.1881288540D+01  0.3164239609D+00
      0.5442492580D+00  0.7443082908D+00
 P   1 1.00       0.000000000000
      0.1687144780D+00  0.1000000000D+01
 P   1 1.00       0.000000000000
      0.4380000000D-01  0.1000000000D+01
 D   1 1.00       0.000000000000
      0.8000000000D+00  0.1000000000D+01
 ****
      3 0
 S   6 1.00       0.000000000000
      0.4173511460D+04  0.1834772000D-02
      0.6274579110D+03  0.1399462700D-01
      0.1429020930D+03  0.6858655201D-01
      0.4023432930D+02  0.2322408730D+00
      0.1282021290D+02  0.4690699480D+00
      0.4390437010D+01  0.3604551990D+00
 S   3 1.00       0.000000000000
      0.1162636186D+02 -0.1149611820D+00
      0.2716279807D+01 -0.1691174791D+00
      0.7722183970D+00  0.1145851947D+01
 S   1 1.00       0.000000000000
      0.2120314970D+00  0.1000000000D+01
 S   1 1.00       0.000000000000
      0.6390000000D-01  0.1000000000D+01
 S   1 1.00       0.000000000000
      0.1825714300D-01  0.1000000000D+01
 S   1 1.00       0.000000000000
      0.5216327000D-02  0.1000000000D+01
 P   3 1.00       0.000000000000
      0.1162636186D+02  0.6757974397D-01
      0.2716279807D+01  0.3239072959D+00
      0.7722183970D+00  0.7408951397D+00
 P   1 1.00       0.000000000000
      0.2120314970D+00  0.1000000000D+01
 P   1 1.00       0.000000000000
      0.6390000000D-01  0.1000000000D+01
 P   1 1.00       0.000000000000
      0.1825714300D-01  0.1000000000D+01
 P   1 1.00       0.000000000000
      0.5216327000D-02  0.1000000000D+01
 D   1 1.00       0.000000000000
      0.8000000000D+00  0.1000000000D+01
 ****
      4 0
 S   3 1.00       0.000000000000
      0.1873113696D+02  0.3349460400D-01
      0.2825394365D+01  0.2347269540D+00
      0.6401216920D+00  0.8137573259D+00
 S   1 1.00       0.000000000000
      0.1612777590D+00  0.1000000000D+01
 P   1 1.00       0.000000000000
      0.1100000000D+01  0.1000000000D+01
 ****
      5 0
 S   3 1.00       0.000000000000
      0.1873113696D+02  0.3349460400D-01
      0.2825394365D+01  0.2347269540D+00
      0.6401216920D+00  0.8137573259D+00
 S   1 1.00       0.000000000000
      0.1612777590D+00  0.1000000000D+01
 P   1 1.00       0.000000000000
      0.1100000000D+01  0.1000000000D+01
 ****
      6 0
 S   6 1.00       0.000000000000
      0.5484671660D+04  0.1831074000D-02
      0.8252349460D+03  0.1395017200D-01
      0.1880469580D+03  0.6844507801D-01
      0.5296450000D+02  0.2327143360D+00
      0.1689757040D+02  0.4701928980D+00
      0.5799635340D+01  0.3585208530D+00
 S   3 1.00       0.000000000000
      0.1553961625D+02 -0.1107775501D+00
      0.3599933586D+01 -0.1480262631D+00
      0.1013761750D+01  0.1130767016D+01
 S   1 1.00       0.000000000000
      0.2700058230D+00  0.1000000000D+01
 S   1 1.00       0.000000000000
      0.8450000000D-01  0.1000000000D+01
 P   3 1.00       0.000000000000
      0.1553961625D+02  0.7087426804D-01
      0.3599933586D+01  0.3397528392D+00
      0.1013761750D+01  0.7271585774D+00
 P   1 1.00       0.000000000000
      0.2700058230D+00  0.1000000000D+01
 P   1 1.00       0.000000000000
      0.8450000000D-01  0.1000000000D+01
 D   1 1.00       0.000000000000
      0.8000000000D+00  0.1000000000D+01
 ****
      7 0
 S   6 1.00       0.000000000000
      0.5484671660D+04  0.1831074000D-02
      0.8252349460D+03  0.1395017200D-01
      0.1880469580D+03  0.6844507801D-01
      0.5296450000D+02  0.2327143360D+00
      0.1689757040D+02  0.4701928980D+00
      0.5799635340D+01  0.3585208530D+00
 S   3 1.00       0.000000000000
      0.1553961625D+02 -0.1107775501D+00
      0.3599933586D+01 -0.1480262631D+00
      0.1013761750D+01  0.1130767016D+01
 S   1 1.00       0.000000000000
      0.2700058230D+00  0.1000000000D+01
 S   1 1.00       0.000000000000
      0.8450000000D-01  0.1000000000D+01
 P   3 1.00       0.000000000000
      0.1553961625D+02  0.7087426804D-01
      0.3599933586D+01  0.3397528392D+00
      0.1013761750D+01  0.7271585774D+00
 P   1 1.00       0.000000000000
      0.2700058230D+00  0.1000000000D+01
 P   1 1.00       0.000000000000
      0.8450000000D-01  0.1000000000D+01
 D   1 1.00       0.000000000000
      0.8000000000D+00  0.1000000000D+01
 ****
      8 0
 S   6 1.00       0.000000000000
      0.3047524880D+04  0.1834737002D-02
      0.4573695180D+03  0.1403732301D-01
      0.1039486850D+03  0.6884262207D-01
      0.2921015530D+02  0.2321844432D+00
      0.9286662960D+01  0.4679413485D+00
      0.3163926960D+01  0.3623119854D+00
 S   3 1.00       0.000000000000
      0.7868272350D+01 -0.1193324200D+00
      0.1881288540D+01 -0.1608541520D+00
      0.5442492580D+00  0.1143456438D+01
 S   1 1.00       0.000000000000
      0.1687144780D+00  0.1000000000D+01
 S   1 1.00       0.000000000000
      0.4380000000D-01  0.1000000000D+01
 P   3 1.00       0.000000000000
      0.7868272350D+01  0.6899906698D-01
      0.1881288540D+01  0.3164239609D+00
      0.5442492580D+00  0.7443082908D+00
 P   1 1.00       0.000000000000
      0.1687144780D+00  0.1000000000D+01
 P   1 1.00       0.000000000000
      0.4380000000D-01  0.1000000000D+01
 D   1 1.00       0.000000000000
      0.8000000000D+00  0.1000000000D+01
 ****
      9 0
 S   3 1.00       0.000000000000
      0.1873113696D+02  0.3349460400D-01
      0.2825394365D+01  0.2347269540D+00
      0.6401216920D+00  0.8137573259D+00
 S   1 1.00       0.000000000000
      0.1612777590D+00  0.1000000000D+01
 P   1 1.00       0.000000000000
      0.1100000000D+01  0.1000000000D+01
 ****
     10 0
 S   3 1.00       0.000000000000
      0.1873113696D+02  0.3349460400D-01
      0.2825394365D+01  0.2347269540D+00
      0.6401216920D+00  0.8137573259D+00
 S   1 1.00       0.000000000000
      0.1612777590D+00  0.1000000000D+01
 P   1 1.00       0.000000000000
      0.1100000000D+01  0.1000000000D+01
 ****
     11 0
 S   3 1.00       0.000000000000
      0.1873113696D+02  0.3349460400D-01
      0.2825394365D+01  0.2347269540D+00
      0.6401216920D+00  0.8137573259D+00
 S   1 1.00       0.000000000000
      0.1612777590D+00  0.1000000000D+01
 P   1 1.00       0.000000000000
      0.1100000000D+01  0.1000000000D+01
 ****
     12 0
 S   3 1.00       0.000000000000
      0.1873113696D+02  0.3349460400D-01
      0.2825394365D+01  0.2347269540D+00
      0.6401216920D+00  0.8137573259D+00
 S   1 1.00       0.000000000000
      0.1612777590D+00  0.1000000000D+01
 P   1 1.00       0.000000000000
      0.1100000000D+01  0.1000000000D+01
 ****
     13 0
 S   3 1.00       0.000000000000
      0.1873113696D+02  0.3349460400D-01
      0.2825394365D+01  0.2347269540D+00
      0.6401216920D+00  0.8137573259D+00
 S   1 1.00       0.000000000000
      0.1612777590D+00  0.1000000000D+01
 P   1 1.00       0.000000000000
      0.1100000000D+01  0.1000000000D+01
 ****

 Integral buffers will be    131072 words long.
 Raffenetti 2 integral format.
 Two-electron integral symmetry is turned off.
   157 basis functions,   249 primitive gaussians,   157 cartesian basis functions
    25 alpha electrons       24 beta electrons
       nuclear repulsion energy       240.8208259962 Hartrees.
 IExCor= 4639 DFT=T Ex+Corr=wB97XD ExCW=0 ScaHFX=  1.000000
 ScaDFX=  1.000000  1.000000  1.000000  1.000000 ScalE2=  1.000000  1.000000
 IRadAn=      0 IRanWt=     -1 IRanGd=            0 ICorTp=0
  HFx wShort=  0.000000 wLong=  0.200000 cFull=  0.222036 cShort=  0.000000 cLong=  0.777964
  DFx wShort=  0.000000 wLong=  0.200000 cFull=  0.000000 cShort=  0.000000 cLong=  1.000000
 NAtoms=   13 NActive=   13 NUniq=   13 SFac= 7.50D-01 NAtFMM=   80 NAOKFM=F Big=F
 R6Disp: Dispersion energy =        -0.0058214160 Hartrees.
 Nuclear repulsion after empirical dispersion term =      240.8150045803 Hartrees.
 Leave Link  301 at Fri Nov  4 21:01:45 2022, MaxMem= 3276800000 cpu:       0.9
 (Enter /local/g09-source/g09/l302.exe)
 NPDir=0 NMtPBC=     1 NCelOv=     1 NCel=       1 NClECP=     1 NCelD=      1
         NCelK=      1 NCelE2=     1 NClLst=     1 CellRange=     0.0.
 One-electron integrals computed using PRISM.
 NBasis=   157 RedAO= T  NBF=   157
 NBsUse=   157 1.00D-06 NBFU=   157
 Precomputing XC quadrature grid using
 IXCGrd= 2 IRadAn=           0 IRanWt=          -1 IRanGd=           0 AccXCQ= 1.00D-10.
 NRdTot=     881 NPtTot=      113336 NUsed=      119685 NTot=      119717
 NSgBfM=   157   157   157   157   157 NAtAll=    13    13.
 Leave Link  302 at Fri Nov  4 21:01:45 2022, MaxMem= 3276800000 cpu:       2.2
 (Enter /local/g09-source/g09/l303.exe)
 DipDrv:  MaxL=1.
 Leave Link  303 at Fri Nov  4 21:01:45 2022, MaxMem= 3276800000 cpu:       0.7
 (Enter /local/g09-source/g09/l401.exe)
 Initial guess read from the checkpoint file:  an.chk
 B after Tr=     0.000422    0.000564    0.001415
         Rot=    1.000000   -0.000008    0.000077   -0.000023 Ang=   0.01 deg.
 Guess basis will be translated and rotated to current coordinates.
 Initial guess <Sx>= 0.0000 <Sy>= 0.0000 <Sz>= 0.5000 <S**2>= 0.7548 S= 0.5024
 Leave Link  401 at Fri Nov  4 21:01:45 2022, MaxMem= 3276800000 cpu:       1.7
 (Enter /local/g09-source/g09/l502.exe)
 UHF open shell SCF:
 Requested convergence on RMS density matrix=1.00D-08 within 200 cycles.
 Requested convergence on MAX density matrix=1.00D-06.
 Requested convergence on             energy=1.00D-06.
 No special actions if energy rises.
 Using DIIS extrapolation, IDIIS=  1040.
 Two-electron integral symmetry not used.
       119555 words used for storage of precomputed grid.
 IEnd=      238162 IEndB=      238162 NGot=  3276800000 MDV=  3276627045
 LenX=  3276627045 LenY=  3276601955
 Fock matrices will be formed incrementally for  20 cycles.

 Cycle   1  Pass 1  IDiag  1:
 FoFJK:  IHMeth= 1 ICntrl=     0 DoSepK=T KAlg= 1 I1Cent= 0 FoldK=F
 FoFCou: FMM=F IPFlag=           0 FMFlag=      100000 FMFlg1=           0
         NFxFlg=           0 DoJE=T BraDBF=F KetDBF=F FulRan=T
         Omega=  0.000000  0.000000  1.000000  0.000000  0.000000 ICntrl=     500 IOpCl=  0
         NMat0=    1 NMatS0=    1 NMatT0=    0 NMatD0=    1 NMtDS0=    0 NMtDT0=    0
         I1Cent=           0 NGrid=           0.
 Symmetry not used in FoFCou.
 E= -323.527098604656    
 DIIS: error= 2.93D-04 at cycle   1 NSaved=   1.
 NSaved= 1 IEnMin= 1 EnMin= -323.527098604656     IErMin= 1 ErrMin= 2.93D-04
 ErrMax= 2.93D-04 EMaxC= 1.00D-01 BMatC= 1.99D-04 BMatP= 1.99D-04
 IDIUse=3 WtCom= 9.97D-01 WtEn= 2.93D-03
 Coeff-Com:  0.100D+01
 Coeff-En:   0.100D+01
 Coeff:      0.100D+01
 Gap=     0.098 Goal=   None    Shift=    0.000
 Gap=     0.186 Goal=   None    Shift=    0.000
 RMSDP=1.31D-04 MaxDP=4.69D-03              OVMax= 2.77D-03

 Cycle   2  Pass 1  IDiag  1:
 RMSU=  1.11D-04    CP:  1.00D+00
 FoFJK:  IHMeth= 1 ICntrl=     0 DoSepK=T KAlg= 1 I1Cent= 0 FoldK=F
 E= -323.527170550544     Delta-E=       -0.000071945888 Rises=F Damp=F
 DIIS: error= 1.19D-04 at cycle   2 NSaved=   2.
 NSaved= 2 IEnMin= 2 EnMin= -323.527170550544     IErMin= 2 ErrMin= 1.19D-04
 ErrMax= 1.19D-04 EMaxC= 1.00D-01 BMatC= 2.92D-05 BMatP= 1.99D-04
 IDIUse=3 WtCom= 9.99D-01 WtEn= 1.19D-03
 Coeff-Com:  0.130D+00 0.870D+00
 Coeff-En:   0.000D+00 0.100D+01
 Coeff:      0.130D+00 0.870D+00
 Gap=     0.098 Goal=   None    Shift=    0.000
 Gap=     0.186 Goal=   None    Shift=    0.000
 RMSDP=5.23D-05 MaxDP=2.44D-03 DE=-7.19D-05 OVMax= 1.35D-03

 Cycle   3  Pass 1  IDiag  1:
 RMSU=  3.35D-05    CP:  1.00D+00  1.24D+00
 FoFJK:  IHMeth= 1 ICntrl=     0 DoSepK=T KAlg= 1 I1Cent= 0 FoldK=F
 E= -323.527177405920     Delta-E=       -0.000006855376 Rises=F Damp=F
 DIIS: error= 8.07D-05 at cycle   3 NSaved=   3.
 NSaved= 3 IEnMin= 3 EnMin= -323.527177405920     IErMin= 3 ErrMin= 8.07D-05
 ErrMax= 8.07D-05 EMaxC= 1.00D-01 BMatC= 1.01D-05 BMatP= 2.92D-05
 IDIUse=1 WtCom= 1.00D+00 WtEn= 0.00D+00
 Coeff-Com: -0.663D-01 0.348D+00 0.718D+00
 Coeff:     -0.663D-01 0.348D+00 0.718D+00
 Gap=     0.098 Goal=   None    Shift=    0.000
 Gap=     0.187 Goal=   None    Shift=    0.000
 RMSDP=3.14D-05 MaxDP=1.06D-03 DE=-6.86D-06 OVMax= 6.45D-04

 Cycle   4  Pass 1  IDiag  1:
 RMSU=  1.42D-05    CP:  1.00D+00  1.42D+00  1.16D+00
 FoFJK:  IHMeth= 1 ICntrl=     0 DoSepK=T KAlg= 1 I1Cent= 0 FoldK=F
 E= -323.527180205754     Delta-E=       -0.000002799834 Rises=F Damp=F
 DIIS: error= 2.52D-05 at cycle   4 NSaved=   4.
 NSaved= 4 IEnMin= 4 EnMin= -323.527180205754     IErMin= 4 ErrMin= 2.52D-05
 ErrMax= 2.52D-05 EMaxC= 1.00D-01 BMatC= 7.60D-07 BMatP= 1.01D-05
 IDIUse=1 WtCom= 1.00D+00 WtEn= 0.00D+00
 Coeff-Com: -0.294D-01 0.745D-01 0.254D+00 0.701D+00
 Coeff:     -0.294D-01 0.745D-01 0.254D+00 0.701D+00
 Gap=     0.098 Goal=   None    Shift=    0.000
 Gap=     0.187 Goal=   None    Shift=    0.000
 RMSDP=1.68D-05 MaxDP=1.12D-03 DE=-2.80D-06 OVMax= 4.87D-04

 Cycle   5  Pass 1  IDiag  1:
 RMSU=  6.23D-06    CP:  1.00D+00  1.50D+00  1.41D+00  1.21D+00
 FoFJK:  IHMeth= 1 ICntrl=     0 DoSepK=T KAlg= 1 I1Cent= 0 FoldK=F
 E= -323.527180465488     Delta-E=       -0.000000259734 Rises=F Damp=F
 DIIS: error= 1.76D-05 at cycle   5 NSaved=   5.
 NSaved= 5 IEnMin= 5 EnMin= -323.527180465488     IErMin= 5 ErrMin= 1.76D-05
 ErrMax= 1.76D-05 EMaxC= 1.00D-01 BMatC= 2.62D-07 BMatP= 7.60D-07
 IDIUse=1 WtCom= 1.00D+00 WtEn= 0.00D+00
 Coeff-Com:  0.825D-03-0.477D-01-0.398D-01 0.369D+00 0.718D+00
 Coeff:      0.825D-03-0.477D-01-0.398D-01 0.369D+00 0.718D+00
 Gap=     0.098 Goal=   None    Shift=    0.000
 Gap=     0.187 Goal=   None    Shift=    0.000
 RMSDP=1.56D-05 MaxDP=8.89D-04 DE=-2.60D-07 OVMax= 4.14D-04

 Cycle   6  Pass 1  IDiag  1:
 RMSU=  2.72D-06    CP:  1.00D+00  1.57D+00  1.60D+00  1.58D+00  1.49D+00
 FoFJK:  IHMeth= 1 ICntrl=     0 DoSepK=T KAlg= 1 I1Cent= 0 FoldK=F
 E= -323.527180597615     Delta-E=       -0.000000132127 Rises=F Damp=F
 DIIS: error= 7.38D-06 at cycle   6 NSaved=   6.
 NSaved= 6 IEnMin= 6 EnMin= -323.527180597615     IErMin= 6 ErrMin= 7.38D-06
 ErrMax= 7.38D-06 EMaxC= 1.00D-01 BMatC= 3.17D-08 BMatP= 2.62D-07
 IDIUse=1 WtCom= 1.00D+00 WtEn= 0.00D+00
 Coeff-Com:  0.468D-02-0.267D-01-0.506D-01 0.724D-02 0.200D+00 0.865D+00
 Coeff:      0.468D-02-0.267D-01-0.506D-01 0.724D-02 0.200D+00 0.865D+00
 Gap=     0.098 Goal=   None    Shift=    0.000
 Gap=     0.187 Goal=   None    Shift=    0.000
 RMSDP=1.09D-05 MaxDP=7.15D-04 DE=-1.32D-07 OVMax= 3.06D-04

 Cycle   7  Pass 1  IDiag  1:
 RMSU=  1.23D-06    CP:  1.00D+00  1.62D+00  1.74D+00  1.80D+00  2.00D+00
                    CP:  1.64D+00
 FoFJK:  IHMeth= 1 ICntrl=     0 DoSepK=T KAlg= 1 I1Cent= 0 FoldK=F
 E= -323.527180639571     Delta-E=       -0.000000041956 Rises=F Damp=F
 DIIS: error= 6.21D-06 at cycle   7 NSaved=   7.
 NSaved= 7 IEnMin= 7 EnMin= -323.527180639571     IErMin= 7 ErrMin= 6.21D-06
 ErrMax= 6.21D-06 EMaxC= 1.00D-01 BMatC= 1.10D-08 BMatP= 3.17D-08
 IDIUse=1 WtCom= 1.00D+00 WtEn= 0.00D+00
 Coeff-Com:  0.233D-02 0.122D-02-0.143D-01-0.106D+00-0.126D+00 0.384D+00
 Coeff-Com:  0.858D+00
 Coeff:      0.233D-02 0.122D-02-0.143D-01-0.106D+00-0.126D+00 0.384D+00
 Coeff:      0.858D+00
 Gap=     0.098 Goal=   None    Shift=    0.000
 Gap=     0.187 Goal=   None    Shift=    0.000
 RMSDP=8.45D-06 MaxDP=5.78D-04 DE=-4.20D-08 OVMax= 2.77D-04

 Cycle   8  Pass 1  IDiag  1:
 RMSU=  6.57D-07    CP:  1.00D+00  1.66D+00  1.84D+00  1.96D+00  2.44D+00
                    CP:  2.26D+00  1.49D+00
 FoFJK:  IHMeth= 1 ICntrl=     0 DoSepK=T KAlg= 1 I1Cent= 0 FoldK=F
 E= -323.527180660026     Delta-E=       -0.000000020455 Rises=F Damp=F
 DIIS: error= 2.65D-06 at cycle   8 NSaved=   8.
 NSaved= 8 IEnMin= 8 EnMin= -323.527180660026     IErMin= 8 ErrMin= 2.65D-06
 ErrMax= 2.65D-06 EMaxC= 1.00D-01 BMatC= 4.62D-09 BMatP= 1.10D-08
 IDIUse=1 WtCom= 1.00D+00 WtEn= 0.00D+00
 Coeff-Com: -0.463D-03 0.830D-02 0.827D-02-0.342D-01-0.105D+00-0.162D+00
 Coeff-Com:  0.423D+00 0.861D+00
 Coeff:     -0.463D-03 0.830D-02 0.827D-02-0.342D-01-0.105D+00-0.162D+00
 Coeff:      0.423D+00 0.861D+00
 Gap=     0.098 Goal=   None    Shift=    0.000
 Gap=     0.187 Goal=   None    Shift=    0.000
 RMSDP=5.21D-06 MaxDP=3.78D-04 DE=-2.05D-08 OVMax= 1.91D-04

 Cycle   9  Pass 1  IDiag  1:
 RMSU=  3.67D-07    CP:  1.00D+00  1.68D+00  1.90D+00  2.05D+00  2.73D+00
                    CP:  2.68D+00  2.15D+00  1.58D+00
 FoFJK:  IHMeth= 1 ICntrl=     0 DoSepK=T KAlg= 1 I1Cent= 0 FoldK=F
 E= -323.527180667480     Delta-E=       -0.000000007454 Rises=F Damp=F
 DIIS: error= 1.24D-06 at cycle   9 NSaved=   9.
 NSaved= 9 IEnMin= 9 EnMin= -323.527180667480     IErMin= 9 ErrMin= 1.24D-06
 ErrMax= 1.24D-06 EMaxC= 1.00D-01 BMatC= 1.34D-09 BMatP= 4.62D-09
 IDIUse=1 WtCom= 1.00D+00 WtEn= 0.00D+00
 Coeff-Com: -0.118D-02 0.462D-02 0.973D-02 0.210D-01-0.159D-01-0.266D+00
 Coeff-Com: -0.211D-01 0.468D+00 0.801D+00
 Coeff:     -0.118D-02 0.462D-02 0.973D-02 0.210D-01-0.159D-01-0.266D+00
 Coeff:     -0.211D-01 0.468D+00 0.801D+00
 Gap=     0.098 Goal=   None    Shift=    0.000
 Gap=     0.187 Goal=   None    Shift=    0.000
 RMSDP=2.73D-06 MaxDP=1.95D-04 DE=-7.45D-09 OVMax= 1.28D-04

 Cycle  10  Pass 1  IDiag  1:
 RMSU=  2.29D-07    CP:  1.00D+00  1.69D+00  1.93D+00  2.10D+00  2.88D+00
                    CP:  2.92D+00  2.59D+00  2.18D+00  1.66D+00
 FoFJK:  IHMeth= 1 ICntrl=     0 DoSepK=T KAlg= 1 I1Cent= 0 FoldK=F
 E= -323.527180670053     Delta-E=       -0.000000002574 Rises=F Damp=F
 DIIS: error= 5.63D-07 at cycle  10 NSaved=  10.
 NSaved=10 IEnMin=10 EnMin= -323.527180670053     IErMin=10 ErrMin= 5.63D-07
 ErrMax= 5.63D-07 EMaxC= 1.00D-01 BMatC= 1.26D-10 BMatP= 1.34D-09
 IDIUse=1 WtCom= 1.00D+00 WtEn= 0.00D+00
 Coeff-Com:  0.818D-04-0.151D-02-0.171D-02 0.906D-02 0.215D-01 0.973D-02
 Coeff-Com: -0.536D-01-0.166D+00-0.273D-01 0.121D+01
 Coeff:      0.818D-04-0.151D-02-0.171D-02 0.906D-02 0.215D-01 0.973D-02
 Coeff:     -0.536D-01-0.166D+00-0.273D-01 0.121D+01
 Gap=     0.098 Goal=   None    Shift=    0.000
 Gap=     0.187 Goal=   None    Shift=    0.000
 RMSDP=9.25D-07 MaxDP=6.08D-05 DE=-2.57D-09 OVMax= 7.42D-05

 Cycle  11  Pass 1  IDiag  1:
 RMSU=  1.35D-07    CP:  1.00D+00  1.70D+00  1.94D+00  2.11D+00  2.93D+00
                    CP:  2.99D+00  2.82D+00  2.57D+00  2.37D+00  1.87D+00
 FoFJK:  IHMeth= 1 ICntrl=     0 DoSepK=T KAlg= 1 I1Cent= 0 FoldK=F
 E= -323.527180670725     Delta-E=       -0.000000000672 Rises=F Damp=F
 DIIS: error= 2.42D-07 at cycle  11 NSaved=  11.
 NSaved=11 IEnMin=11 EnMin= -323.527180670725     IErMin=11 ErrMin= 2.42D-07
 ErrMax= 2.42D-07 EMaxC= 1.00D-01 BMatC= 3.06D-11 BMatP= 1.26D-10
 IDIUse=1 WtCom= 1.00D+00 WtEn= 0.00D+00
 Coeff-Com:  0.236D-03-0.854D-03-0.185D-02-0.448D-02 0.174D-02 0.453D-01
 Coeff-Com:  0.199D-01-0.820D-01-0.202D+00-0.207D-01 0.124D+01
 Coeff:      0.236D-03-0.854D-03-0.185D-02-0.448D-02 0.174D-02 0.453D-01
 Coeff:      0.199D-01-0.820D-01-0.202D+00-0.207D-01 0.124D+01
 Gap=     0.098 Goal=   None    Shift=    0.000
 Gap=     0.187 Goal=   None    Shift=    0.000
 RMSDP=4.37D-07 MaxDP=1.85D-05 DE=-6.72D-10 OVMax= 4.36D-05

 Cycle  12  Pass 1  IDiag  1:
 RMSU=  6.64D-08    CP:  1.00D+00  1.70D+00  1.94D+00  2.11D+00  2.94D+00
                    CP:  3.00D+00  2.91D+00  2.76D+00  2.82D+00  2.65D+00
                    CP:  2.04D+00
 FoFJK:  IHMeth= 1 ICntrl=     0 DoSepK=T KAlg= 1 I1Cent= 0 FoldK=F
 E= -323.527180670915     Delta-E=       -0.000000000190 Rises=F Damp=F
 DIIS: error= 1.17D-07 at cycle  12 NSaved=  12.
 NSaved=12 IEnMin=12 EnMin= -323.527180670915     IErMin=12 ErrMin= 1.17D-07
 ErrMax= 1.17D-07 EMaxC= 1.00D-01 BMatC= 6.87D-12 BMatP= 3.06D-11
 IDIUse=1 WtCom= 1.00D+00 WtEn= 0.00D+00
 Coeff-Com:  0.438D-04 0.956D-04-0.105D-03-0.310D-02-0.391D-02 0.847D-02
 Coeff-Com:  0.174D-01 0.154D-01-0.604D-01-0.243D+00 0.283D+00 0.986D+00
 Coeff:      0.438D-04 0.956D-04-0.105D-03-0.310D-02-0.391D-02 0.847D-02
 Coeff:      0.174D-01 0.154D-01-0.604D-01-0.243D+00 0.283D+00 0.986D+00
 Gap=     0.098 Goal=   None    Shift=    0.000
 Gap=     0.187 Goal=   None    Shift=    0.000
 RMSDP=2.07D-07 MaxDP=9.05D-06 DE=-1.90D-10 OVMax= 1.95D-05

 Cycle  13  Pass 1  IDiag  1:
 RMSU=  2.63D-08    CP:  1.00D+00  1.70D+00  1.94D+00  2.11D+00  2.94D+00
                    CP:  3.00D+00  2.93D+00  2.82D+00  3.00D+00  3.00D+00
                    CP:  2.73D+00  1.59D+00
 FoFJK:  IHMeth= 1 ICntrl=     0 DoSepK=T KAlg= 1 I1Cent= 0 FoldK=F
 E= -323.527180670953     Delta-E=       -0.000000000038 Rises=F Damp=F
 DIIS: error= 4.29D-08 at cycle  13 NSaved=  13.
 NSaved=13 IEnMin=13 EnMin= -323.527180670953     IErMin=13 ErrMin= 4.29D-08
 ErrMax= 4.29D-08 EMaxC= 1.00D-01 BMatC= 1.38D-12 BMatP= 6.87D-12
 IDIUse=1 WtCom= 1.00D+00 WtEn= 0.00D+00
 Coeff-Com: -0.438D-04 0.247D-03 0.419D-03 0.183D-03-0.160D-02-0.890D-02
 Coeff-Com:  0.919D-03 0.275D-01 0.295D-01-0.579D-01-0.236D+00 0.253D+00
 Coeff-Com:  0.993D+00
 Coeff:     -0.438D-04 0.247D-03 0.419D-03 0.183D-03-0.160D-02-0.890D-02
 Coeff:      0.919D-03 0.275D-01 0.295D-01-0.579D-01-0.236D+00 0.253D+00
 Coeff:      0.993D+00
 Gap=     0.098 Goal=   None    Shift=    0.000
 Gap=     0.187 Goal=   None    Shift=    0.000
 RMSDP=1.06D-07 MaxDP=4.22D-06 DE=-3.76D-11 OVMax= 8.21D-06

 Cycle  14  Pass 1  IDiag  1:
 RMSU=  3.97D-08    CP:  1.00D+00  1.70D+00  1.94D+00  2.11D+00  2.93D+00
                    CP:  3.00D+00  2.93D+00  2.83D+00  3.00D+00  3.00D+00
                    CP:  3.00D+00  1.88D+00  2.75D+00
 FoFJK:  IHMeth= 1 ICntrl=     0 DoSepK=T KAlg= 1 I1Cent= 0 FoldK=F
 E= -323.527180670961     Delta-E=       -0.000000000009 Rises=F Damp=F
 DIIS: error= 2.29D-08 at cycle  14 NSaved=  14.
 NSaved=14 IEnMin=14 EnMin= -323.527180670961     IErMin=14 ErrMin= 2.29D-08
 ErrMax= 2.29D-08 EMaxC= 1.00D-01 BMatC= 1.96D-13 BMatP= 1.38D-12
 IDIUse=1 WtCom= 1.00D+00 WtEn= 0.00D+00
 Coeff-Com: -0.358D-05-0.308D-04-0.184D-04 0.413D-03 0.698D-03-0.682D-03
 Coeff-Com: -0.304D-02-0.353D-02 0.368D-02 0.432D-01-0.202D-01-0.169D+00
 Coeff-Com: -0.827D-01 0.123D+01
 Coeff:     -0.358D-05-0.308D-04-0.184D-04 0.413D-03 0.698D-03-0.682D-03
 Coeff:     -0.304D-02-0.353D-02 0.368D-02 0.432D-01-0.202D-01-0.169D+00
 Coeff:     -0.827D-01 0.123D+01
 Gap=     0.098 Goal=   None    Shift=    0.000
 Gap=     0.187 Goal=   None    Shift=    0.000
 RMSDP=3.94D-08 MaxDP=1.66D-06 DE=-8.75D-12 OVMax= 3.20D-06

 Cycle  15  Pass 1  IDiag  1:
 RMSU=  2.30D-08    CP:  1.00D+00  1.70D+00  1.94D+00  2.11D+00  2.93D+00
                    CP:  3.00D+00  2.93D+00  2.83D+00  3.00D+00  3.00D+00
                    CP:  3.00D+00  2.04D+00  3.00D+00  1.40D+00
 FoFJK:  IHMeth= 1 ICntrl=     0 DoSepK=T KAlg= 1 I1Cent= 0 FoldK=F
 E= -323.527180670965     Delta-E=       -0.000000000003 Rises=F Damp=F
 DIIS: error= 1.15D-08 at cycle  15 NSaved=  15.
 NSaved=15 IEnMin=15 EnMin= -323.527180670965     IErMin=15 ErrMin= 1.15D-08
 ErrMax= 1.15D-08 EMaxC= 1.00D-01 BMatC= 4.44D-14 BMatP= 1.96D-13
 IDIUse=1 WtCom= 1.00D+00 WtEn= 0.00D+00
 Coeff-Com:  0.102D-04-0.423D-04-0.811D-04-0.147D-03 0.147D-03 0.222D-02
 Coeff-Com:  0.261D-03-0.413D-02-0.836D-02 0.410D-02 0.529D-01-0.216D-01
 Coeff-Com: -0.194D+00-0.235D+00 0.140D+01
 Coeff:      0.102D-04-0.423D-04-0.811D-04-0.147D-03 0.147D-03 0.222D-02
 Coeff:      0.261D-03-0.413D-02-0.836D-02 0.410D-02 0.529D-01-0.216D-01
 Coeff:     -0.194D+00-0.235D+00 0.140D+01
 Gap=     0.098 Goal=   None    Shift=    0.000
 Gap=     0.187 Goal=   None    Shift=    0.000
 RMSDP=1.79D-08 MaxDP=7.31D-07 DE=-3.18D-12 OVMax= 1.62D-06

 Cycle  16  Pass 1  IDiag  1:
 RMSU=  5.46D-09    CP:  1.00D+00  1.70D+00  1.94D+00  2.11D+00  2.93D+00
                    CP:  3.00D+00  2.93D+00  2.83D+00  3.00D+00  3.00D+00
                    CP:  3.00D+00  2.08D+00  3.00D+00  1.53D+00  1.57D+00
 FoFJK:  IHMeth= 1 ICntrl=     0 DoSepK=T KAlg= 1 I1Cent= 0 FoldK=F
 E= -323.527180670965     Delta-E=       -0.000000000000 Rises=F Damp=F
 DIIS: error= 4.46D-09 at cycle  16 NSaved=  16.
 NSaved=16 IEnMin=16 EnMin= -323.527180670965     IErMin=16 ErrMin= 4.46D-09
 ErrMax= 4.46D-09 EMaxC= 1.00D-01 BMatC= 7.21D-15 BMatP= 4.44D-14
 IDIUse=1 WtCom= 1.00D+00 WtEn= 0.00D+00
 Large coefficients: NSaved= 16 BigCof=    0.00 CofMax=   10.00 Det=-4.96D-15
 Inversion failed.  Reducing to 15 matrices.
 Coeff-Com:  0.927D-05 0.730D-05-0.566D-04-0.149D-03-0.535D-04 0.282D-03
 Coeff-Com:  0.139D-02-0.654D-04-0.723D-02-0.469D-02 0.326D-01 0.516D-01
 Coeff-Com: -0.167D+00-0.295D+00 0.139D+01
 Coeff:      0.927D-05 0.730D-05-0.566D-04-0.149D-03-0.535D-04 0.282D-03
 Coeff:      0.139D-02-0.654D-04-0.723D-02-0.469D-02 0.326D-01 0.516D-01
 Coeff:     -0.167D+00-0.295D+00 0.139D+01
 Gap=     0.098 Goal=   None    Shift=    0.000
 Gap=     0.187 Goal=   None    Shift=    0.000
 RMSDP=5.64D-09 MaxDP=1.59D-07 DE=-2.27D-13 OVMax= 5.79D-07

 SCF Done:  E(UwB97XD) =  -323.527180671     A.U. after   16 cycles
             Convg  =    0.5644D-08             -V/T =  2.0101
 <Sx>= 0.0000 <Sy>= 0.0000 <Sz>= 0.5000 <S**2>= 0.7548 S= 0.5024
 <L.S>= 0.000000000000E+00
 KE= 3.203006994030D+02 PE=-1.247648648331D+03 EE= 3.630057636766D+02
 Annihilation of the first spin contaminant:
 S**2 before annihilation     0.7548,   after     0.7500
 Leave Link  502 at Fri Nov  4 21:02:21 2022, MaxMem= 3276800000 cpu:     355.9
 (Enter /local/g09-source/g09/l601.exe)
 Copying SCF densities to generalized density rwf, IOpCl= 1 IROHF=0.

 **********************************************************************

            Population analysis using the SCF density.

 **********************************************************************

 Alpha  occ. eigenvalues --  -19.04971 -19.03477 -14.38109 -10.18931 -10.17760
 Alpha  occ. eigenvalues --  -10.15352  -1.00723  -0.83060  -0.74514  -0.66566
 Alpha  occ. eigenvalues --   -0.58493  -0.47365  -0.40955  -0.39756  -0.36915
 Alpha  occ. eigenvalues --   -0.35125  -0.34143  -0.30709  -0.30409  -0.27653
 Alpha  occ. eigenvalues --   -0.25102  -0.15565  -0.14617  -0.11773  -0.02604
 Alpha virt. eigenvalues --    0.07160   0.07438   0.07495   0.08163   0.15488
 Alpha virt. eigenvalues --    0.17243   0.17278   0.18593   0.20409   0.20829
 Alpha virt. eigenvalues --    0.23519   0.24487   0.24877   0.27203   0.27685
 Alpha virt. eigenvalues --    0.28671   0.28944   0.29706   0.32132   0.33390
 Alpha virt. eigenvalues --    0.36287   0.37528   0.38699   0.39075   0.41073
 Alpha virt. eigenvalues --    0.42491   0.43852   0.45354   0.46256   0.48293
 Alpha virt. eigenvalues --    0.49149   0.50137   0.51779   0.52681   0.53140
 Alpha virt. eigenvalues --    0.53578   0.54712   0.55566   0.55782   0.59745
 Alpha virt. eigenvalues --    0.62672   0.63862   0.67117   0.73688   0.85871
 Alpha virt. eigenvalues --    0.86716   0.88561   0.91648   0.92201   0.94857
 Alpha virt. eigenvalues --    0.97785   1.03103   1.10459   1.14948   1.15220
 Alpha virt. eigenvalues --    1.19297   1.21234   1.24645   1.26197   1.27627
 Alpha virt. eigenvalues --    1.30509   1.35013   1.38620   1.42478   1.47305
 Alpha virt. eigenvalues --    1.50848   1.52749   1.56074   1.56975   1.60354
 Alpha virt. eigenvalues --    1.60923   1.64731   1.66607   1.67539   1.72163
 Alpha virt. eigenvalues --    1.78028   1.83932   1.91411   1.97515   1.98886
 Alpha virt. eigenvalues --    2.02186   2.04919   2.09548   2.12992   2.15111
 Alpha virt. eigenvalues --    2.15649   2.17753   2.19444   2.21471   2.22712
 Alpha virt. eigenvalues --    2.25445   2.28537   2.32320   2.35061   2.39018
 Alpha virt. eigenvalues --    2.45802   2.46813   2.49917   2.51743   2.53502
 Alpha virt. eigenvalues --    2.59248   2.62926   2.66768   2.70256   2.74347
 Alpha virt. eigenvalues --    2.76993   2.80504   2.85542   2.89130   2.91465
 Alpha virt. eigenvalues --    2.95375   2.98697   3.02617   3.05011   3.10749
 Alpha virt. eigenvalues --    3.21066   3.24377   3.31611   3.36242   3.44541
 Alpha virt. eigenvalues --    3.51085   3.59631   3.65354   3.68645   3.72409
 Alpha virt. eigenvalues --    3.89662   4.41699   4.60492   4.64351   4.77007
 Alpha virt. eigenvalues --    4.84688   4.89577
  Beta  occ. eigenvalues --  -19.04290 -19.03034 -14.37022 -10.18948 -10.17747
  Beta  occ. eigenvalues --  -10.15353  -0.98774  -0.81620  -0.74307  -0.66189
  Beta  occ. eigenvalues --   -0.57625  -0.45935  -0.40191  -0.39443  -0.36243
  Beta  occ. eigenvalues --   -0.34444  -0.32918  -0.30004  -0.28535  -0.26969
  Beta  occ. eigenvalues --   -0.23707  -0.13941  -0.11222  -0.10636
  Beta virt. eigenvalues --    0.08069   0.08408   0.08663   0.09713   0.16441
  Beta virt. eigenvalues --    0.18177   0.18359   0.19845   0.21330   0.21501
  Beta virt. eigenvalues --    0.23836   0.24155   0.24873   0.25995   0.27785
  Beta virt. eigenvalues --    0.28387   0.29207   0.29459   0.30212   0.32604
  Beta virt. eigenvalues --    0.33766   0.36715   0.37789   0.38991   0.39515
  Beta virt. eigenvalues --    0.41334   0.42883   0.44279   0.45635   0.46571
  Beta virt. eigenvalues --    0.48671   0.49446   0.50355   0.51953   0.52944
  Beta virt. eigenvalues --    0.53417   0.53851   0.54876   0.55713   0.56316
  Beta virt. eigenvalues --    0.60524   0.63213   0.64717   0.67335   0.74049
  Beta virt. eigenvalues --    0.85927   0.86918   0.88607   0.91713   0.92318
  Beta virt. eigenvalues --    0.94927   0.97922   1.03214   1.10680   1.15386
  Beta virt. eigenvalues --    1.16006   1.19451   1.22258   1.24743   1.27035
  Beta virt. eigenvalues --    1.28525   1.30715   1.35228   1.38731   1.42958
  Beta virt. eigenvalues --    1.48029   1.52009   1.53891   1.56674   1.57966
  Beta virt. eigenvalues --    1.60969   1.61403   1.65018   1.67249   1.68188
  Beta virt. eigenvalues --    1.73059   1.79176   1.84075   1.91853   1.97802
  Beta virt. eigenvalues --    1.99460   2.02702   2.05276   2.10166   2.13439
  Beta virt. eigenvalues --    2.16053   2.16209   2.18218   2.19923   2.21928
  Beta virt. eigenvalues --    2.23586   2.26403   2.28787   2.33070   2.35521
  Beta virt. eigenvalues --    2.39239   2.45956   2.47141   2.50062   2.52704
  Beta virt. eigenvalues --    2.53858   2.59926   2.63319   2.67381   2.70689
  Beta virt. eigenvalues --    2.74594   2.77710   2.81839   2.86462   2.89414
  Beta virt. eigenvalues --    2.91670   2.95868   2.98871   3.03499   3.05339
  Beta virt. eigenvalues --    3.10861   3.21742   3.24472   3.32569   3.36939
  Beta virt. eigenvalues --    3.44819   3.51113   3.59722   3.65477   3.68678
  Beta virt. eigenvalues --    3.72431   3.89670   4.43583   4.61077   4.64724
  Beta virt. eigenvalues --    4.77103   4.85560   4.89661
     Alpha Molecular Orbital Coefficients:
                           1         2         3         4         5
                           O         O         O         O         O
     Eigenvalues --  -.19049710611376E+02 -.19034772558249E+02 -.14381087388378E+02 -.10189307257077E+02 -.10177600780276E+02
   1 1   C  1S       -.64322560934630E-05 0.43508867794136E-05 -.34530081751399E-04 0.99362960490085E+00 -.11845054669378E-01
   2        2S       0.60777878958210E-04 0.41304399987575E-04 -.15369508385163E-03 0.46719250094263E-01 -.85519418812243E-03
   3        3S       0.76525692520070E-04 -.67653364692438E-04 0.75419910267226E-03 -.23075548673549E-01 0.63382668849448E-02
   4        4S       -.82214878130930E-02 -.19858696851966E-02 0.21165446778745E-02 -.17503856490995E-01 0.23667091993951E-02
   5        5PX      -.18220176364458E-04 0.29854654596076E-04 -.16699203174303E-04 0.21159682562345E-03 -.12381458929742E-03
   6        5PY      0.39500447357207E-04 -.16701605277383E-04 -.21158164654474E-03 -.29168406056693E-03 -.89723834722792E-04
   7        5PZ      -.16302013019100E-04 0.53677532053877E-05 0.16263957111500E-03 0.23758918211148E-03 0.10665237277609E-06
   8        6PX      0.62162317719970E-04 -.14805962163958E-03 0.25349128065046E-04 -.23945824415472E-02 0.21250845370203E-02
   9        6PY      -.15836434695181E-03 -.12738988803321E-04 -.31762392949055E-03 0.14259306454317E-02 0.16707492030696E-02
  10        6PZ      0.20603815953995E-05 -.75970259460631E-05 0.14156206195249E-03 -.18764664735862E-02 0.52072965137156E-03
  11        7PX      -.94464751303038E-03 -.18784346975337E-02 0.52942700242580E-03 -.22543574366448E-02 0.42919147354712E-03
  12        7PY      -.20187172788176E-03 -.52935436411385E-03 0.32191142598063E-03 0.89709092864378E-03 -.29414081277986E-03
  13        7PZ      -.74326209671817E-03 0.93195315793567E-03 0.10463620823999E-03 -.21544254752437E-02 0.16511708287306E-05
  14        8XX      -.66055379612783E-04 -.11243287252833E-04 -.30417143998284E-04 -.70890895850862E-02 -.28533286230566E-03
  15        8YY      -.60598604137632E-04 -.70806905467965E-05 0.15894335961632E-03 -.72843000816397E-02 -.12729122605775E-03
  16        8ZZ      -.42889603041846E-04 0.36014536880289E-05 0.66982239345493E-04 -.71759592387264E-02 -.56233093094642E-04
  17        8XY      -.40996940700322E-04 0.53959405125555E-05 0.19641507700195E-04 -.11589352997648E-04 -.14780101451596E-03
  18        8XZ      0.38894392083318E-04 -.74513382452127E-05 -.23619686111404E-04 -.11169682112234E-03 -.53376014613097E-04
  19        8YZ      0.29698943573154E-04 0.78622224042317E-05 -.16728253182605E-03 0.19943675397356E-03 0.20516095001665E-04
  20 2   C  1S       -.36995988313966E-05 0.39112487987681E-05 0.92230909649025E-05 0.11566427506162E-01 0.99353883099731E+00
  21        2S       -.14356148435293E-04 -.16323820289183E-04 0.74711523778786E-04 0.30337830614826E-03 0.46817622785137E-01
  22        3S       0.19867307873527E-03 -.12336397701547E-03 -.15951773646967E-03 0.55517904361979E-02 -.21136498433497E-01
  23        4S       0.82701165160052E-02 0.22035065247480E-02 -.19912634046842E-02 0.14485530378113E-01 -.12631868804771E-02
  24        5PX      0.43904194665187E-06 -.11695159495489E-04 0.14700692727459E-04 0.11691352277478E-03 -.17557804592068E-03
  25        5PY      0.18238794198334E-04 -.37571625991303E-05 -.31991446976851E-05 0.70853461875184E-05 0.71403076105718E-05
  26        5PZ      -.43711437618003E-05 -.70279612986190E-05 0.76870102825353E-05 0.71705238927325E-04 -.26305339080102E-03
  27        6PX      -.80532895957615E-04 0.45345470169441E-04 0.23236753541976E-04 -.22453675522836E-02 0.14901113437363E-02
  28        6PY      -.13290958215661E-03 -.14433226832637E-03 0.23069682925896E-03 -.13691650527653E-02 0.99500439923633E-03
  29        6PZ      0.42370335099820E-05 0.55170350654204E-04 -.59680198937626E-04 -.27202053440056E-03 -.70268435915458E-03
  30        7PX      -.16872545230909E-02 -.91877165406440E-03 0.38554235139220E-03 -.13521171583145E-02 -.12625767019130E-03
  31        7PY      -.14836456886405E-02 -.86887999651580E-03 0.19688011928777E-03 -.98428794917978E-03 0.39814512966046E-03
  32        7PZ      0.71657981608877E-03 -.83907100108563E-03 -.89759076088628E-04 0.21021547327327E-02 0.10265028381432E-02
  33        8XX      0.19316052334675E-04 0.98135089568898E-05 0.11004815328001E-05 -.54716462223680E-03 -.74049789752245E-02
  34        8YY      -.17643467573997E-04 0.36772510850271E-04 -.30039785224265E-04 -.27343210087968E-03 -.72269545418556E-02
  35        8ZZ      -.79537294844749E-05 0.17310830260629E-04 0.61744977148822E-05 -.19914577100709E-03 -.74550402877176E-02
  36        8XY      0.76289805883239E-06 0.29577603038106E-05 -.33326943232933E-04 -.15317959408244E-03 -.11200854710418E-03
  37        8XZ      0.13775697930767E-04 -.46646699499045E-05 0.15142162597885E-04 -.91574368983763E-04 -.11871079197325E-03
  38        8YZ      0.79649479907069E-05 -.11490238557010E-04 0.14786494896333E-04 -.36053619955043E-04 -.13863585746799E-03
  39 3   N  1S       -.28353225206057E-04 -.28490867431098E-04 0.99292287324108E+00 -.76951023687130E-04 0.69761813743813E-05
  40        2S       0.21154646861791E-03 0.11468180312807E-03 0.33936003059726E-01 0.18732324386066E-04 0.23686778257455E-04
  41        3S       0.28263537789919E-03 0.88835312863684E-04 0.24497288622793E-02 0.19198498267376E-02 -.17325751371701E-02
  42        4S       0.10738790957033E-01 0.50760584097267E-02 -.24208442733159E-03 0.13287574594344E-01 -.52478400072338E-02
  43        5S       0.22199688562597E-04 -.13552264553928E-03 -.13997385600038E-03 0.13854001461628E-02 -.14455605655531E-03
  44        6S       0.12344585952700E-04 0.23973622304500E-05 0.15241640690096E-04 -.22492397321624E-03 0.41481691980088E-04
  45        7PX      -.29540720317024E-03 0.22831853465612E-03 -.40992277450636E-03 0.19562840265958E-04 -.48960088279996E-04
  46        7PY      -.11741263573480E-03 -.19875387911006E-03 -.36162314108666E-03 0.17703783409245E-04 -.38803084477328E-04
  47        7PZ      0.50450643542231E-04 0.33997974068821E-04 -.21472616626866E-03 0.56809124664797E-04 0.46952860040049E-04
  48        8PX      0.26337688291788E-03 -.38592457789640E-04 0.12777560144306E-03 0.14665354195001E-02 0.15699567327036E-02
  49        8PY      0.15417797815684E-03 -.90676463099673E-04 0.29962890803639E-03 0.17973455246221E-02 0.10637435315578E-03
  50        8PZ      0.63213676429304E-05 0.30299409286183E-04 0.36573052502762E-03 -.17012601641571E-02 -.32338305538837E-03
  51        9PX      -.80820815320057E-02 0.66460389370867E-02 -.47681533841983E-03 0.31886843026748E-02 0.87717881455407E-03
  52        9PY      -.11462899183662E-02 -.27599716753994E-02 -.56443268780902E-03 0.55289224003802E-02 0.14142609825800E-02
  53        9PZ      0.10144091901137E-02 0.10608761567718E-03 -.36693442363278E-04 -.35816563484749E-02 -.93342123323187E-03
  54       10PX      0.67011395395955E-04 0.50245728667098E-04 -.39113111450508E-04 -.13482002113579E-03 -.11525447396601E-03
  55       10PY      0.10667617817859E-03 -.63896758344729E-04 -.23204053972412E-04 0.18160622760169E-03 -.28656534861725E-03
  56       10PZ      -.27053976623939E-04 0.65524040921887E-04 0.30880778680084E-04 0.25161041684123E-04 0.10493011507477E-03
  57       11PX      -.62748025169367E-05 -.11307089516861E-04 0.78044307258849E-05 0.32173109784550E-04 0.48578311693441E-04
  58       11PY      -.61042806867507E-05 0.15749872698593E-04 0.60635539095390E-06 -.19756883077600E-04 0.74407278857659E-04
  59       11PZ      -.35358252385014E-05 -.14124144679857E-04 -.88018609477468E-05 -.45219330321592E-04 -.70626603778457E-04
  60       12XX      -.21324973361051E-03 0.10761409130583E-03 -.78001892094137E-02 -.14211021384998E-03 -.12896742540792E-03
  61       12YY      -.76368863901302E-04 0.56554852703078E-04 -.78980807902713E-02 -.24205039046367E-03 0.27023538338853E-04
  62       12ZZ      -.10957978250224E-03 -.57220289645826E-04 -.76931887627004E-02 -.14912793224291E-03 0.81475739627187E-05
  63       12XY      -.59102535280316E-04 -.13165108404320E-03 0.12006975797209E-03 -.41237439609464E-04 -.43683777736389E-04
  64       12XZ      0.40578562726941E-04 0.11913283651745E-04 0.10244748444090E-04 -.26576272830039E-04 0.75877395895611E-04
  65       12YZ      -.15257784916730E-04 -.23109918429032E-04 0.22115039624930E-03 0.22333085937453E-03 -.28839870338110E-04
  66 4   H  1S       0.43705721631987E-04 -.44093560263610E-04 -.47232614427910E-04 -.36861112595057E-04 -.19843327879203E-03
  67        2S       -.88137890087809E-05 0.24854084669348E-03 -.10553166001841E-03 0.22075465349867E-02 -.56305422471303E-03
  68        3PX      -.24012810605137E-05 -.19283663289860E-05 -.15761365317777E-04 -.20448279513890E-03 -.62682054052987E-04
  69        3PY      -.13923591939581E-04 0.41014007000194E-05 0.64210886229464E-04 0.14983257212307E-03 -.50991643758761E-04
  70        3PZ      0.43827857150724E-05 0.22609196306857E-05 -.30164474063867E-04 0.14580490494603E-03 -.67834454493229E-05
  71 5   H  1S       -.96099283012162E-05 0.44741072327630E-06 -.55973840666712E-04 0.87565694669245E-04 -.12074133920154E-03
  72        2S       0.11411941866772E-04 -.50630403778033E-04 -.14957503752854E-03 0.22934918361888E-02 -.10407128147857E-03
  73        3PX      -.14967460979055E-05 0.96270983534161E-06 0.33413485966921E-05 0.53348583227285E-04 0.26869145110240E-04
  74        3PY      -.78448026808829E-05 -.78908419057418E-05 0.32966208230579E-04 -.16553600301905E-03 0.22689933673960E-04
  75        3PZ      0.91347691326472E-05 0.94304864546769E-05 -.42020080905919E-04 -.23616150313411E-03 0.15181552662251E-04
  76 6   O  1S       0.99268954238463E+00 0.19659178990567E-03 -.41074868593277E-04 -.43720339135655E-04 -.36519672424554E-04
  77        2S       0.24772751820850E-01 0.16994244607741E-03 0.14311222953904E-03 -.28431496732417E-03 -.19439556708948E-03
  78        3S       0.15679970284062E-01 -.74622709784274E-03 0.30881868671863E-03 0.14066941440925E-02 0.14322714283359E-02
  79        4S       -.17707449614728E-01 0.43133543619500E-02 -.74252062600285E-03 0.15655863159720E-02 0.36959902128242E-02
  80        5PX      0.11430202429351E-02 -.15776473157650E-04 0.20150052424904E-03 -.49556308191701E-04 -.18197206615815E-04
  81        5PY      0.45318302150454E-03 0.85474684086525E-05 0.80964634586031E-04 -.61929155675775E-04 -.21926576008044E-04
  82        5PZ      -.28393829791131E-03 0.27453863215779E-05 -.42311924925270E-04 0.36326220951718E-04 0.17777280373069E-04
  83        6PX      -.46986408862721E-03 -.13622214991435E-04 0.11028750646494E-03 0.91637868330269E-03 0.94184554727492E-03
  84        6PY      -.20485341183692E-03 -.38267872158595E-04 -.41753894312471E-04 0.35255318706706E-03 0.51555959977361E-03
  85        6PZ      0.10296470371318E-03 -.39737784066314E-05 -.58639838225302E-04 -.16087837801410E-03 -.29305627053399E-03
  86        7PX      -.26561519801033E-02 0.56121690974161E-03 -.19141327609603E-03 -.12917138175991E-03 0.65738336276498E-03
  87        7PY      -.11290551060107E-02 0.82677259155090E-03 0.19779587416074E-04 -.11116734295573E-02 0.10756434081286E-04
  88        7PZ      0.72731453124720E-03 -.22601303234146E-03 0.64258690704059E-04 0.66520470396066E-03 0.27934466064869E-04
  89        8XX      -.84130356033142E-02 -.39005811446816E-05 -.12725078505588E-03 0.40666535040577E-04 0.37174660918816E-04
  90        8YY      -.83495684845910E-02 0.96804639492762E-04 -.12354522756667E-05 -.13930370559415E-03 -.11090759789351E-03
  91        8ZZ      -.83031492800798E-02 0.93656487583088E-04 -.14602359234459E-05 -.17537465471432E-03 -.11636678438984E-03
  92        8XY      -.17546822116740E-04 0.22015519300884E-04 -.64057379503853E-04 0.64157312187169E-04 0.11997925888054E-03
  93        8XZ      0.24030668862514E-04 0.53379245019425E-05 0.45093328673883E-04 -.14093942099181E-04 -.50336298203713E-04
  94        8YZ      0.39279108581661E-04 0.36498441316839E-06 0.13260661960007E-04 -.12477753055965E-03 -.35546548740859E-04
  95 7   O  1S       -.14693518275961E-03 0.99279225046450E+00 -.36712673280756E-04 -.14558134365614E-04 0.15846718321370E-04
  96        2S       0.11363800796045E-03 0.24672236078654E-01 0.39097533130677E-04 -.85928796567451E-04 0.10539437279106E-03
  97        3S       -.57138021042765E-03 0.14657471930234E-01 0.28556900220083E-03 0.13925566229246E-04 -.82303133217862E-03
  98        4S       0.35875225555344E-02 -.14343635244155E-01 -.37753010655291E-04 -.25941852518853E-02 0.21638906904121E-02
  99        5PX      0.27470614082398E-04 -.72265330244943E-03 -.17082384648103E-03 0.27122796176683E-04 -.27811745629401E-04
 100        5PY      -.55167730252499E-05 0.66503976253813E-03 0.14826119528235E-03 -.46922509622361E-04 -.47265919171440E-04
 101        5PZ      -.31228801740878E-06 -.15165686011010E-03 -.25180623118498E-04 0.51539728659174E-04 0.17311368931255E-04
 102        6PX      -.76332889968076E-04 0.47760092294452E-03 -.33475510944102E-03 -.15643546479973E-03 0.10578607617965E-03
 103        6PY      -.46166541828095E-05 -.36014989101873E-03 0.15432230753183E-03 -.16205025384476E-03 -.13152895534867E-03
 104        6PZ      0.81145235870858E-06 0.80624837282236E-04 -.79251390393025E-04 0.60544971203220E-04 0.24151422628302E-04
 105        7PX      -.22597053769268E-04 0.16562981232556E-02 0.23359854484231E-03 -.27442031512314E-03 -.69739461727630E-03
 106        7PY      0.10229971932179E-02 -.20177908818918E-02 0.43663185387182E-04 -.16550853501847E-02 0.26651737534728E-03
 107        7PZ      -.29537517383847E-03 0.44160839411335E-03 0.33857772172938E-04 0.81153181146575E-03 0.26845166650139E-03
 108        8XX      -.30241490803893E-04 -.82853305874091E-02 0.85850529792388E-04 0.49751053463432E-04 0.67041823433448E-04
 109        8YY      0.96977410263060E-04 -.82179148125624E-02 0.36665858372900E-05 -.12367838159375E-03 0.14213088924388E-04
 110        8ZZ      0.58387579545499E-04 -.81029133081383E-02 -.58362166647816E-04 -.77063444247350E-04 -.68452206617841E-05
 111        8XY      0.10465492467545E-04 0.13641783066402E-03 -.10357335437143E-03 -.46555375136251E-04 0.80179657561375E-05
 112        8XZ      0.13379110553255E-04 -.25125185594501E-04 0.20995553027125E-04 -.82756876639894E-04 -.16213719467457E-04
 113        8YZ      -.21895220746857E-04 0.50530563745560E-04 -.16910804676572E-04 -.47840679626714E-04 0.14944857079657E-04
 114 8   C  1S       -.43059498742807E-05 0.55839142461781E-05 0.71866558764446E-05 -.47210732083266E-04 0.17260434150357E-02
 115        2S       -.16633095502984E-04 0.13653803290505E-04 0.11741469160180E-04 -.37027970481268E-04 -.22345351805214E-03
 116        3S       0.12299785725521E-03 -.24002045162503E-03 -.24908293665270E-04 -.24693947556892E-03 0.48938043340814E-02
 117        4S       -.15026800289203E-02 0.10300999927772E-02 0.38358053924289E-03 -.57063315262866E-02 0.45026010982947E-04
 118        5PX      0.62879691116424E-07 0.36033227749035E-05 -.16740278502671E-04 0.56425518090652E-04 -.41121654035970E-05
 119        5PY      0.35480140646554E-06 -.87879826218468E-05 -.11987161019979E-04 -.10670833986695E-04 -.66032729625189E-04
 120        5PZ      -.70932715662120E-05 0.12915829823363E-04 -.79901239111642E-05 0.60359660805422E-04 -.32630585514975E-04
 121        6PX      -.26382837857801E-04 0.14826537528899E-04 0.89439949320732E-04 0.16785488123574E-03 -.76140288295622E-03
 122        6PY      0.29248404556999E-04 0.13140107095428E-03 -.33475388900416E-04 0.15937192585037E-03 -.45718279157637E-03
 123        6PZ      -.39612936105052E-04 -.16989366297296E-04 -.10017556284193E-04 0.26417876653362E-03 -.19335076392772E-02
 124        7PX      0.37309872907325E-03 0.82929848374144E-04 -.70524740170859E-04 0.67844665808665E-03 0.94222558518565E-04
 125        7PY      0.31691274112882E-03 0.13626969429621E-03 -.79580724713501E-04 0.40662117835764E-03 -.85868045531255E-04
 126        7PZ      0.24790528195456E-03 -.44509842966405E-03 -.50520499419617E-04 0.15105789508043E-02 0.88733986629947E-04
 127        8XX      -.56199585425840E-05 0.76338264129808E-05 0.13812602012282E-04 0.91278150147224E-05 -.25105892685450E-03
 128        8YY      -.66075500526242E-05 0.19500356798284E-04 0.31072458462442E-04 -.53439281874791E-04 -.12619856032677E-03
 129        8ZZ      -.77351956169487E-05 0.11182503703261E-04 0.16016334012709E-04 -.46695069292208E-04 -.37226926060220E-03
 130        8XY      -.34567022003682E-06 0.57495867941315E-05 0.65542412063412E-05 0.30969071604473E-04 0.34957894056674E-04
 131        8XZ      -.43764052611706E-05 0.66818573496171E-05 -.13478296279018E-05 -.15704927834803E-04 -.42405516576261E-04
 132        8YZ      0.53505881767790E-05 -.22938276046743E-05 0.76601307669598E-05 -.21021536823082E-04 -.31765157845624E-04
 133 9   H  1S       0.13412087903318E-05 0.21963721453057E-04 0.23077162084549E-04 -.15167285779662E-03 -.13967729206668E-04
 134        2S       0.58644524932188E-04 -.28414092900735E-03 0.98890530545331E-04 -.62199306216835E-03 0.32309660827324E-02
 135        3PX      -.25006507956717E-05 -.12546335686848E-06 -.22301938720589E-05 -.70853050657368E-04 0.14984275178830E-03
 136        3PY      -.12751190665322E-04 -.17555150314411E-04 -.12827145789856E-04 -.33616642390600E-04 -.21248818359860E-03
 137        3PZ      0.73659768394555E-05 0.50406979672599E-05 0.10618174483427E-04 -.29321843805722E-05 -.63513192719667E-04
 138 10  H  1S       0.24648627408176E-04 -.50776040190027E-05 -.71436462391624E-05 -.16808111356690E-03 -.16514219210904E-03
 139        2S       -.94008276846026E-04 0.14326301779328E-03 -.48616109722925E-04 -.51604251660495E-03 0.31300944434530E-02
 140        3PX      0.22153313384383E-05 -.27212777730276E-05 -.44748117105026E-05 -.35498962987778E-06 -.82159114665219E-04
 141        3PY      0.21895004239972E-05 0.14037362725609E-06 -.91154475436475E-05 0.12283903857602E-04 0.28064466315558E-03
 142        3PZ      0.75190980247641E-05 -.64069045816415E-07 -.11114971590752E-06 -.37664646502623E-05 -.17027102005641E-03
 143 11  H  1S       -.27057103812604E-04 0.33340017918426E-04 0.15855482121066E-04 0.92025446122954E-04 -.16025433733258E-03
 144        2S       0.32111807004931E-03 -.11524924234727E-04 -.72214750632082E-05 -.76451678869851E-03 -.48563153563954E-03
 145        3PX      -.30999398709878E-06 -.18086899809267E-05 -.81092890315511E-05 0.78622157066383E-04 0.25730718003560E-04
 146        3PY      0.61039193701664E-05 -.34886328513991E-04 -.77862789218424E-05 0.21063879616531E-04 0.12396989997892E-04
 147        3PZ      -.75791739846861E-05 -.16575827879388E-04 0.38370862355060E-05 0.62971271955628E-04 0.28800802294142E-04
 148 12  H  1S       0.26808213663327E-05 0.35448658940377E-05 -.48247678694911E-05 -.42749308337745E-04 -.20220960467974E-03
 149        2S       -.69374978921948E-04 -.65938138267704E-04 -.39980964202161E-04 0.16262948285973E-03 -.40831819701315E-03
 150        3PX      0.23043968786799E-05 0.60146752791015E-05 0.29227700232544E-05 -.11431070559204E-04 0.28969588254975E-04
 151        3PY      0.92378656240228E-06 0.22545349719478E-05 0.11162203855040E-04 -.10973534276179E-04 -.34472818618135E-05
 152        3PZ      0.26696749447079E-06 0.20554116222775E-05 0.18889953844836E-06 -.36698969050101E-04 0.43168622442057E-04
 153 13  H  1S       -.49429931934043E-05 -.90515484352098E-06 0.20950717139219E-04 -.85334879580603E-04 -.10035369105204E-03
 154        2S       -.88034620141532E-05 -.40998607550682E-04 0.79925896781587E-04 0.78965474431817E-04 -.49841207348952E-03
 155        3PX      0.16218648842769E-05 0.23834489750494E-05 -.80034972121175E-05 0.30598918316278E-04 0.85917191670677E-05
 156        3PY      0.11518383298459E-06 0.27348682836902E-05 -.11278054232885E-04 -.25584766302340E-05 -.55666300394171E-04
 157        3PZ      0.57631559378042E-05 0.10420904976045E-05 -.46323485988208E-05 0.62284427619978E-05 -.15654666659634E-03
                           6         7         8         9        10
                           O         O         O         O         O
     Eigenvalues --  -.10153520029988E+02 -.10072279385920E+01 -.83060000360944E+00 -.74514251093135E+00 -.66565786314022E+00
   1 1   C  1S       0.64978610771516E-04 -.32719321789399E-01 -.15399946164139E-01 -.12370096671115E+00 0.10321968273537E+00
   2        2S       0.51923664271880E-04 0.61073882899508E-01 0.28988949013006E-01 0.23747322639510E+00 -.20301760455828E+00
   3        3S       -.12981943758339E-02 0.13544167208246E-01 0.15667820452385E-01 0.19829493705227E+00 -.18454903096681E+00
   4        4S       -.20625880271356E-01 0.17067233972777E-01 0.11799562347942E+00 0.10249318040625E+00 -.66622595964162E-01
   5        5PX      -.10489193166262E-03 -.51178717874634E-02 0.24559555591212E-01 0.59211890759819E-01 0.11201161208133E-01
   6        5PY      -.35357868906104E-04 -.36019166552879E-01 -.90787273670580E-02 0.16183259980394E-01 0.50738222922302E-01
   7        5PZ      -.60443933773109E-04 0.27586105989569E-01 0.50949006491378E-02 0.19080227989058E-01 -.16795075378337E-01
   8        6PX      -.11631268239641E-03 0.13882134166423E-03 0.12709662235079E-01 0.11752650135639E-01 0.86865638305902E-03
   9        6PY      0.16615537904056E-03 0.22007150232895E-02 0.77005891398831E-03 0.38896914167769E-02 0.23560181240553E-03
  10        6PZ      -.38288462481534E-03 -.55632024441259E-02 -.68262924300707E-02 0.47814445015563E-02 -.10764976499658E-02
  11        7PX      -.46109544398768E-02 -.13057198753973E-02 0.56888706985447E-02 0.13748565970325E-01 -.99010094899627E-03
  12        7PY      -.18079655363885E-02 -.12615233382581E-01 -.19412081641580E-02 -.12799246036165E-01 0.22483962823992E-01
  13        7PZ      -.19086873101887E-02 0.10749272403446E-01 0.20900991633128E-01 0.17507069608145E-01 -.12880383749332E-01
  14        8XX      -.39081876830274E-04 -.25247763447361E-02 -.98721284857898E-03 0.16109174620873E-02 0.50574402189985E-02
  15        8YY      -.63953177465492E-04 0.59725989864345E-02 0.16838934167491E-02 -.20228288136060E-02 -.62474237592053E-03
  16        8ZZ      0.15391708449172E-04 0.15731353733032E-02 -.84053732178726E-03 -.48189282545340E-02 0.12206804081431E-02
  17        8XY      0.58867977342879E-04 0.14618995546719E-02 -.33294327886818E-02 0.60234377454468E-02 0.45614463593607E-03
  18        8XZ      -.28395781187292E-04 -.11401479341864E-02 0.35056511355759E-02 -.13461871085729E-03 0.20896774794842E-02
  19        8YZ      -.15427474637469E-05 -.71327543292926E-02 -.13165614375231E-02 -.23852803661393E-02 0.55438147526535E-02
  20 2   C  1S       -.20008620270381E-02 -.66226473076614E-02 -.14152227516706E-01 -.13333507309442E+00 -.18842986485580E-01
  21        2S       -.46323318215418E-03 0.12135496207348E-01 0.25474880078032E-01 0.25220734854646E+00 0.31992557145037E-01
  22        3S       0.55408301577409E-02 0.10657679428646E-01 0.14153306349408E-01 0.20592122582193E+00 0.43546648288416E-01
  23        4S       0.24933289895306E-01 0.25899565104159E-01 -.84229500521737E-01 -.82334000004998E-01 -.53512173569277E-02
  24        5PX      -.20562473673515E-04 -.71297904922196E-02 -.69012065870821E-02 -.49027069433425E-01 0.71302718337437E-01
  25        5PY      0.41740218228118E-04 -.68276074247874E-02 -.86231844265301E-02 -.21625844146864E-01 0.58269628572117E-01
  26        5PZ      0.67253059448396E-04 0.13540512381311E-02 0.10428210308644E-02 0.77760784404490E-02 0.64466368564461E-01
  27        6PX      0.11313970107166E-02 -.38788364712949E-02 0.67419524035036E-03 -.78717318184962E-02 0.94553103794492E-02
  28        6PY      0.52905059861402E-03 -.32826313173427E-02 -.25296810747657E-02 0.49956869222179E-02 0.13768793331864E-01
  29        6PZ      0.22831923272467E-02 0.31223752752655E-02 0.80036900608936E-02 -.29971945243647E-02 0.20002905483888E-01
  30        7PX      -.39113146256822E-02 -.82109869623127E-02 0.17572401771951E-01 0.45868938033500E-02 0.26419020719051E-02
  31        7PY      -.29657594499024E-02 -.40429645601504E-02 0.11176001262475E-01 0.12366816759220E-01 -.79064636969994E-02
  32        7PZ      0.23828986485763E-02 -.22640110534573E-04 -.12609983964218E-01 -.19980971778908E-01 -.24376300404035E-02
  33        8XX      -.17129333611891E-03 0.95810409312626E-03 0.20661535850470E-04 0.78035261198195E-03 -.65796497870478E-02
  34        8YY      -.15855336257560E-03 0.86498433221062E-03 -.37362659083938E-05 -.42875146502159E-02 -.23699635911771E-02
  35        8ZZ      -.23991383622269E-03 -.31387936638187E-03 -.58820564629450E-03 -.65683113661623E-03 0.90898758106259E-02
  36        8XY      -.24240029493483E-04 0.14623749783595E-02 0.10747024417744E-02 0.59132008347021E-02 -.36936130203978E-02
  37        8XZ      -.78010716203633E-04 -.27149555014035E-03 0.10468622355866E-03 0.16315057465901E-02 0.22251671722949E-02
  38        8YZ      -.11991182469742E-04 -.29354691865429E-03 -.86282494428051E-04 0.20408930391491E-02 0.28719113718399E-02
  39 3   N  1S       -.57395338561009E-05 -.15357424431317E+00 -.29506535323640E-01 -.16425936108931E-01 0.41732148426999E-01
  40        2S       0.23296911243623E-05 0.32686259658378E+00 0.63660958188702E-01 0.33653955558790E-01 -.91038132095662E-01
  41        3S       0.22636880269543E-04 0.25207434473175E+00 0.70023333891862E-01 0.56522337570542E-01 -.12399881195424E+00
  42        4S       0.54062100846160E-02 0.13584027190726E+00 -.23739707895974E-01 -.15368469644484E+00 0.16310801223655E+00
  43        5S       0.61880109173216E-04 -.23138012790793E-01 -.12063414752981E-01 -.22966768026298E-02 0.35671531728622E-02
  44        6S       0.30677495000206E-04 0.47578018703947E-02 0.16363767453930E-02 0.78235645565714E-04 -.84220118852597E-03
  45        7PX      -.20444035230198E-04 -.79439407128871E-01 0.24262931998902E+00 0.37673444185975E-02 -.21536641054376E-01
  46        7PY      -.57536752590645E-04 -.56879782057817E-01 -.42432725537549E-01 0.11149579393680E+00 -.11975344816113E+00
  47        7PZ      -.33633475344082E-04 0.14935226927141E-01 -.17513928066068E-01 -.60872811345256E-01 0.87822506742132E-01
  48        8PX      0.53681774626801E-03 -.10885927843631E-01 0.46660426998140E-01 -.48583302621013E-02 -.47920310638976E-02
  49        8PY      0.17356814697373E-03 0.18821540600650E-01 -.26139449545136E-02 0.28813211755618E-01 -.39046702834732E-01
  50        8PZ      -.56707912419832E-04 -.13407463976444E-01 -.76605060052940E-02 -.16115167290345E-01 0.33199075814757E-01
  51        9PX      0.17852987745916E-02 -.62218313234075E-01 0.14395981507247E+00 -.19135144593644E-01 -.93968273904685E-02
  52        9PY      0.15103118783300E-02 -.66898461786296E-01 -.46180325506833E-01 -.27794157420945E-02 -.35516866830621E-02
  53        9PZ      -.59353903904681E-03 0.35031255119810E-01 0.29534704937725E-02 0.14933412541689E-01 -.13837774125735E-01
  54       10PX      -.21451758805267E-03 0.31027260400497E-02 -.93376807378557E-02 0.19435107790036E-02 -.39983950092380E-04
  55       10PY      0.11016303026316E-03 0.34922274529522E-02 -.28214501654127E-03 -.11035367056062E-02 0.97238484288365E-03
  56       10PZ      0.23980802903875E-03 -.19557615692232E-02 0.93403573449017E-03 -.64988090749972E-03 -.31121749624903E-03
  57       11PX      0.83177411431136E-04 -.84713085722098E-03 0.20127566427123E-02 -.64982699697856E-03 -.12933051497633E-03
  58       11PY      0.19453470334254E-04 -.78496036169142E-03 -.34734896216296E-03 0.52032652241967E-04 -.50069203908441E-03
  59       11PZ      -.46520585219355E-04 0.37415134459884E-03 -.14687221263396E-03 0.40930430868224E-03 -.42668205339063E-04
  60       12XX      -.52048227420938E-04 0.12585884779350E-01 -.67238484121108E-02 -.72565160984335E-02 0.10182491016236E-01
  61       12YY      -.12322720787133E-04 -.74727714384063E-02 0.81491998634232E-02 0.26957100571943E-02 -.14989597328666E-02
  62       12ZZ      -.19835716981898E-04 -.13217894776845E-01 -.79253187303024E-03 0.38631710290325E-02 -.36674371027436E-02
  63       12XY      -.71059475843720E-04 0.28397594340297E-02 -.22340756113574E-01 0.34963539618969E-02 0.10174796660763E-02
  64       12XZ      0.20115093835994E-04 -.37838613619208E-02 0.58894908592586E-02 -.18779584097039E-03 -.12796524648113E-02
  65       12YZ      -.26943520851754E-04 -.41504393984365E-02 -.10177121341571E-02 -.49233890424233E-02 0.57155569361319E-02
  66 4   H  1S       0.37662122986125E-04 0.14006983204397E-01 -.70020096668875E-03 0.55969244200657E-01 -.57830604732114E-01
  67        2S       0.70138249482810E-04 0.90227485848897E-02 0.75881895743254E-02 0.11923769928107E-01 -.15993870183293E-01
  68        3PX      -.85274820850032E-05 0.12797636191600E-02 0.93689313617126E-03 0.55661635973310E-02 -.45104696216585E-02
  69        3PY      -.26940041779401E-04 -.13657903632832E-02 0.22537599516210E-03 -.19340338816873E-02 0.26539040553195E-02
  70        3PZ      -.24005619102512E-04 0.27230397460173E-04 -.34664458818297E-03 -.14764955253186E-02 0.15779718971333E-02
  71 5   H  1S       0.23127566047026E-05 0.11027387688061E-01 0.68053680778677E-02 0.58645446218392E-01 -.64631705442154E-01
  72        2S       0.75980358448148E-05 0.54574131117012E-02 -.16477116334657E-02 0.17317019137806E-01 -.24495809615988E-01
  73        3PX      0.18499873384234E-04 0.96902227560852E-04 0.10695371878485E-03 0.11126054267877E-02 -.51241596607173E-03
  74        3PY      0.22460444673054E-04 0.23374037850087E-03 0.11560274729922E-03 0.30463609869587E-02 -.22506396234106E-02
  75        3PZ      0.14826059577667E-04 0.17886592192209E-02 0.72588650821847E-03 0.54312739023788E-02 -.55091399057709E-02
  76 6   O  1S       0.60955707920886E-05 -.13773815080710E+00 0.12240877984759E+00 0.28002912062099E-01 -.46806593121205E-01
  77        2S       0.12133237983461E-04 0.29688935166755E+00 -.26661852003581E+00 -.61414478126385E-01 0.10400500227893E+00
  78        3S       0.53046636230874E-04 0.28604167895972E+00 -.29908083825736E+00 -.79119771143766E-01 0.13471008207609E+00
  79        4S       0.10805768723487E-02 -.18685008781225E+00 0.17315641273643E+00 0.25060513048831E-01 -.57369522329208E-01
  80        5PX      0.10970728498275E-04 0.12727033761025E+00 -.56858778961897E-01 -.15516599209761E-01 0.66637838396494E-02
  81        5PY      0.21904862807018E-04 0.44347867681819E-01 -.37928645730449E-01 0.12473036760904E-01 -.20421164594134E-01
  82        5PZ      0.17784910428538E-04 -.30105245141305E-01 0.18324696764769E-01 -.66623138382664E-02 0.15554726328642E-01
  83        6PX      0.18437654379476E-03 0.48451537989706E-01 -.24001567344299E-01 -.13128873145430E-01 0.83905777869225E-02
  84        6PY      -.27355784578728E-04 0.13885533747530E-01 -.21629168859225E-01 0.28755347177441E-02 -.64334399794966E-02
  85        6PZ      -.13369255982228E-03 -.10803806200589E-01 0.10875209994939E-01 -.51248771820297E-03 0.39607473959866E-02
  86        7PX      0.15865253552434E-03 -.50644700652085E-01 0.37621198790147E-01 0.11351605014140E-01 -.16865963243390E-01
  87        7PY      0.13194977764949E-04 -.10181682611731E-01 0.27655323778884E-01 0.18451528579084E-02 -.42304100921599E-02
  88        7PZ      0.19030481049403E-03 0.84869394771441E-02 -.13827783280669E-01 -.44285918218282E-02 0.57581161654564E-02
  89        8XX      0.71147747359499E-04 0.13170226744563E-01 0.24255448231697E-02 -.22263469484601E-02 -.11894599702403E-03
  90        8YY      0.12095587642186E-04 -.89217907113920E-02 0.50247214513981E-02 0.32340911292157E-02 -.38843709300196E-02
  91        8ZZ      0.82126431997490E-05 -.81589443011685E-02 0.59364886379969E-02 0.16830242823186E-02 -.20197271789518E-02
  92        8XY      0.10562446196701E-05 0.90694434227262E-02 -.69848815228760E-02 0.12904844038045E-02 -.22501803923149E-02
  93        8XZ      -.24740109704195E-04 -.62529474430619E-02 0.28941528149530E-02 -.56502541607618E-03 0.18146234470557E-02
  94        8YZ      -.13406844017086E-04 -.10247605231378E-02 0.98631196257956E-03 -.12916329802588E-02 0.22539357980937E-02
  95 7   O  1S       -.54477374778692E-06 -.73221141599838E-01 -.16974573583135E+00 0.52475418763662E-01 -.40376737748385E-01
  96        2S       0.40616880910617E-05 0.15697518428219E+00 0.37002433502256E+00 -.11543253342680E+00 0.88372435709378E-01
  97        3S       0.12557204563951E-03 0.15134668226625E+00 0.40527950052805E+00 -.13469193535817E+00 0.11608275785624E+00
  98        4S       -.30429987566013E-02 -.53855419096015E-01 -.19972642336087E+00 0.64787068905637E-01 -.41151823257285E-01
  99        5PX      -.16551970924991E-04 -.60601574018338E-01 -.69122571163039E-01 0.22218760396122E-01 -.56875568603391E-02
 100        5PY      0.32701657945078E-04 0.44088440098440E-01 0.73055874470077E-01 -.29885282807328E-02 -.99628023732648E-02
 101        5PZ      -.20349240441110E-04 -.83043212141286E-02 -.16039327694603E-01 -.42090701013646E-02 0.11685809871910E-01
 102        6PX      0.17088331080142E-03 -.31037810447922E-01 -.33357715264518E-01 0.13849706901162E-01 -.77522288708986E-02
[...]
  22         O       -.15565354175781E+00 0.23153389055123E+01
  23         O       -.14617134370146E+00 0.22288987827575E+01
  24         O       -.11772951468744E+00 0.24100008086016E+01
  25         O       -.26044498337075E-01 0.23417023081884E+01
  26         V       0.71602819472282E-01 0.19931006080653E-01
  27         V       0.74377751481400E-01 0.20336650820884E-01
  28         V       0.74947011552113E-01 0.15127772402407E-01
  29         V       0.81633023303541E-01 0.15941025609674E-01
  30         V       0.15488442784869E+00 0.15482199049197E+00
  31         V       0.17243268645347E+00 0.14279255267202E+00
  32         V       0.17277681909622E+00 0.15884433461000E+00
  33         V       0.18592710361264E+00 0.11219120628020E+00
  34         V       0.20409140120019E+00 0.21586668763081E+00
  35         V       0.20828723156275E+00 0.21870681670681E+00
  36         V       0.23519175084214E+00 0.24227982357631E+00
  37         V       0.24486624646824E+00 0.23404645448221E+00
  38         V       0.24876558380183E+00 0.26972088048512E+00
  39         V       0.27202945693048E+00 0.31390764011257E+00
  40         V       0.27685259783741E+00 0.29771394226534E+00
  41         V       0.28671252092878E+00 0.49730515446616E+00
  42         V       0.28943548919458E+00 0.31688285244278E+00
  43         V       0.29706332770891E+00 0.38674742456312E+00
  44         V       0.32132089587609E+00 0.51963706741666E+00
  45         V       0.33389830678218E+00 0.45689545975447E+00
  46         V       0.36287396046618E+00 0.11741127199627E+01
  47         V       0.37528114189099E+00 0.88775633499077E+00
  48         V       0.38698955064605E+00 0.89197178603628E+00
  49         V       0.39075251352455E+00 0.11685893035252E+01
  50         V       0.41073174916935E+00 0.10055716375878E+01
  51         V       0.42490860117144E+00 0.86358293079606E+00
  52         V       0.43852418116323E+00 0.14340709058493E+01
  53         V       0.45353970948654E+00 0.93058082349537E+00
  54         V       0.46255896763303E+00 0.94196427947364E+00
  55         V       0.48293132299484E+00 0.10807658919307E+01
  56         V       0.49149355283619E+00 0.11617956760565E+01
  57         V       0.50136878033827E+00 0.10300499993684E+01
  58         V       0.51778545036738E+00 0.83681588370746E+00
  59         V       0.52680620432649E+00 0.85195326829645E+00
  60         V       0.53139505134275E+00 0.96543843194764E+00
  61         V       0.53578014081717E+00 0.97183537206259E+00
  62         V       0.54711728739855E+00 0.97140174342860E+00
  63         V       0.55565689965421E+00 0.97790839700155E+00
  64         V       0.55781517720249E+00 0.14751439477983E+01
  65         V       0.59745032925129E+00 0.23033938970945E+01
  66         V       0.62672404562819E+00 0.18701289486009E+01
  67         V       0.63862256821244E+00 0.19213873286202E+01
  68         V       0.67117341353045E+00 0.11967180954897E+01
  69         V       0.73687731950088E+00 0.14016798555592E+01
  70         V       0.85871242622396E+00 0.18224289907811E+01
  71         V       0.86715771814796E+00 0.23209729798800E+01
  72         V       0.88560678482585E+00 0.22074666509714E+01
  73         V       0.91648202164318E+00 0.20248271535163E+01
  74         V       0.92200703971353E+00 0.19761978765205E+01
  75         V       0.94856650221711E+00 0.20639256355203E+01
  76         V       0.97784958527968E+00 0.25948527035544E+01
  77         V       0.10310316498214E+01 0.22562653849677E+01
  78         V       0.11045923557014E+01 0.24591757652786E+01
  79         V       0.11494782619512E+01 0.24384827481549E+01
  80         V       0.11522035352838E+01 0.23600337101545E+01
  81         V       0.11929677295180E+01 0.23051285881537E+01
  82         V       0.12123433506952E+01 0.24921886107561E+01
  83         V       0.12464463001650E+01 0.24146657917360E+01
  84         V       0.12619684399200E+01 0.25569861252263E+01
  85         V       0.12762721452049E+01 0.23829707007905E+01
  86         V       0.13050876130722E+01 0.25576046921396E+01
  87         V       0.13501271198168E+01 0.24454497272011E+01
  88         V       0.13861992750716E+01 0.26200987215224E+01
  89         V       0.14247767759526E+01 0.28770281376338E+01
  90         V       0.14730523599323E+01 0.31372727533038E+01
  91         V       0.15084781964286E+01 0.30765580265901E+01
  92         V       0.15274915695661E+01 0.33662967393961E+01
  93         V       0.15607408352990E+01 0.29637651949471E+01
  94         V       0.15697516718522E+01 0.30026707890660E+01
  95         V       0.16035425752872E+01 0.32519558728803E+01
  96         V       0.16092325426144E+01 0.32681212515926E+01
  97         V       0.16473144707175E+01 0.26060779810218E+01
  98         V       0.16660654782279E+01 0.26500416770933E+01
  99         V       0.16753946968970E+01 0.27487001094501E+01
 100         V       0.17216322004984E+01 0.25362021347391E+01
 101         V       0.17802763419633E+01 0.26163914484195E+01
 102         V       0.18393224372521E+01 0.26622461599745E+01
 103         V       0.19141098613923E+01 0.27945449200013E+01
 104         V       0.19751484351444E+01 0.29220024334654E+01
 105         V       0.19888596144242E+01 0.29710539781608E+01
 106         V       0.20218629323728E+01 0.29152208883240E+01
 107         V       0.20491874945054E+01 0.29714590918222E+01
 108         V       0.20954778987747E+01 0.31786450755567E+01
 109         V       0.21299226389655E+01 0.30284006081659E+01
 110         V       0.21511110080221E+01 0.28759657982815E+01
 111         V       0.21564934168498E+01 0.30250788266871E+01
 112         V       0.21775294360661E+01 0.31708796534996E+01
 113         V       0.21944403165179E+01 0.30574054430337E+01
 114         V       0.22147117660214E+01 0.30299815650912E+01
 115         V       0.22271220102299E+01 0.30704206018222E+01
 116         V       0.22544496215820E+01 0.31142553663098E+01
 117         V       0.22853741753074E+01 0.31664103441133E+01
 118         V       0.23231969260548E+01 0.34084492679099E+01
 119         V       0.23506118403066E+01 0.33656457887292E+01
 120         V       0.23901841901452E+01 0.32667694983915E+01
 121         V       0.24580215981329E+01 0.33420108354470E+01
 122         V       0.24681251789254E+01 0.33600481931112E+01
 123         V       0.24991675282526E+01 0.32454766363916E+01
 124         V       0.25174335568663E+01 0.33459566194688E+01
 125         V       0.25350186418580E+01 0.33123004114228E+01
 126         V       0.25924833361029E+01 0.35568534037546E+01
 127         V       0.26292587190944E+01 0.36132123779415E+01
 128         V       0.26676778316570E+01 0.35232560609746E+01
 129         V       0.27025596359629E+01 0.36165276765830E+01
 130         V       0.27434739590991E+01 0.35171349129027E+01
 131         V       0.27699310124002E+01 0.36814064548776E+01
 132         V       0.28050356004302E+01 0.37713907521489E+01
 133         V       0.28554233155323E+01 0.37395925427631E+01
 134         V       0.28913036106273E+01 0.36232279828186E+01
 135         V       0.29146545111556E+01 0.36909025597642E+01
 136         V       0.29537502186549E+01 0.38781914609853E+01
 137         V       0.29869691546025E+01 0.38569669746535E+01
 138         V       0.30261734011252E+01 0.41700666634979E+01
 139         V       0.30501099699558E+01 0.40284735983045E+01
 140         V       0.31074867158997E+01 0.40228473302288E+01
 141         V       0.32106607546979E+01 0.44461226021087E+01
 142         V       0.32437677354686E+01 0.40711366337849E+01
 143         V       0.33161082702339E+01 0.47612146371259E+01
 144         V       0.33624181096595E+01 0.47356711797485E+01
 145         V       0.34454056296374E+01 0.46622097572018E+01
 146         V       0.35108478317588E+01 0.49300563605193E+01
 147         V       0.35963149673531E+01 0.49000551147465E+01
 148         V       0.36535402100755E+01 0.49033442309304E+01
 149         V       0.36864501684383E+01 0.50260675470976E+01
 150         V       0.37240873274695E+01 0.52234229390288E+01
 151         V       0.38966244743013E+01 0.55443574908795E+01
 152         V       0.44169934194833E+01 0.10318670745533E+02
 153         V       0.46049204188203E+01 0.10842426250932E+02
 154         V       0.46435119392737E+01 0.10575265767497E+02
 155         V       0.47700699017138E+01 0.10365986561146E+02
 156         V       0.48468839708712E+01 0.12100491594613E+02
 157         V       0.48957738797604E+01 0.10438472307752E+02
 Orbital energies and kinetic energies (beta):
                                 1                 2
   1         O       -.19042901478024E+02 0.29040872378945E+02
   2         O       -.19030335042562E+02 0.29042899717461E+02
   3         O       -.14370223441687E+02 0.21988994281146E+02
   4         O       -.10189483522459E+02 0.15907660372461E+02
   5         O       -.10177472987487E+02 0.15906223116622E+02
   6         O       -.10153534232224E+02 0.15898140676244E+02
   7         O       -.98773664659723E+00 0.23889244720364E+01
   8         O       -.81619866121435E+00 0.27297205362087E+01
   9         O       -.74307437646773E+00 0.14399117039315E+01
  10         O       -.66189496285535E+00 0.14894020205586E+01
  11         O       -.57625248706896E+00 0.16382494704626E+01
  12         O       -.45935446847700E+00 0.19864983637661E+01
  13         O       -.40190783185051E+00 0.98512951339926E+00
  14         O       -.39443118778232E+00 0.10539341766034E+01
  15         O       -.36243280062163E+00 0.15361317384377E+01
  16         O       -.34443677653832E+00 0.14638058028562E+01
  17         O       -.32917852911354E+00 0.13953929325242E+01
  18         O       -.30004313309996E+00 0.18580483650619E+01
  19         O       -.28534962910027E+00 0.14018890244584E+01
  20         O       -.26969352621543E+00 0.13678196740085E+01
  21         O       -.23707415929465E+00 0.14740308420452E+01
  22         O       -.13940673865018E+00 0.21949820283793E+01
  23         O       -.11221712336667E+00 0.23521435684599E+01
  24         O       -.10635895349980E+00 0.22568213890523E+01
  25         V       0.80685764353404E-01 0.16149642748415E-01
  26         V       0.84084642499445E-01 0.15526433576371E-01
  27         V       0.86627624076806E-01 0.15302714548940E-01
  28         V       0.97130714048117E-01 0.15506291176543E-01
  29         V       0.16440596066293E+00 0.15853479105566E+00
  30         V       0.18177103315520E+00 0.19024679474159E+00
  31         V       0.18358823261845E+00 0.14875006547637E+00
  32         V       0.19844906454897E+00 0.15102965414070E+00
  33         V       0.21330453632014E+00 0.24289139427501E+00
  34         V       0.21500731298639E+00 0.21000677355644E+00
  35         V       0.23835614744924E+00 0.26118655316794E+00
  36         V       0.24155340484010E+00 0.92289384329420E+00
  37         V       0.24872803496409E+00 0.24461727795513E+00
  38         V       0.25994902420603E+00 0.10118264110234E+01
  39         V       0.27785407154642E+00 0.34567529867912E+00
  40         V       0.28387145160893E+00 0.41244254604859E+00
  41         V       0.29207284482649E+00 0.38945935804044E+00
  42         V       0.29458808663285E+00 0.51881270979719E+00
  43         V       0.30212246481047E+00 0.46117160916228E+00
  44         V       0.32604305737204E+00 0.51185428905899E+00
  45         V       0.33765547224780E+00 0.44401090553655E+00
  46         V       0.36714905213873E+00 0.98507522412765E+00
  47         V       0.37788566434056E+00 0.94429833438826E+00
  48         V       0.38991007821599E+00 0.93662976113792E+00
  49         V       0.39514888159622E+00 0.11404349711095E+01
  50         V       0.41333962173081E+00 0.93661119756965E+00
  51         V       0.42883061565651E+00 0.90543536685652E+00
  52         V       0.44279441489189E+00 0.14051291061999E+01
  53         V       0.45635316079815E+00 0.91687385985873E+00
  54         V       0.46570580617377E+00 0.97475849132395E+00
  55         V       0.48671295133461E+00 0.10780869088102E+01
  56         V       0.49445602912694E+00 0.12068169862443E+01
  57         V       0.50354695948195E+00 0.10155797356910E+01
  58         V       0.51952617029208E+00 0.84734265278888E+00
  59         V       0.52944303844888E+00 0.86304258942909E+00
  60         V       0.53417304108547E+00 0.10216411028816E+01
  61         V       0.53850682991180E+00 0.97836759928913E+00
  62         V       0.54876073538878E+00 0.10425828637462E+01
  63         V       0.55712691996815E+00 0.99148991584500E+00
  64         V       0.56316056191776E+00 0.13842133911521E+01
  65         V       0.60524300916983E+00 0.23567113386103E+01
  66         V       0.63213132238100E+00 0.13447625678685E+01
  67         V       0.64716572356512E+00 0.25302451669583E+01
  68         V       0.67334544888762E+00 0.12502454715335E+01
  69         V       0.74049064843937E+00 0.14395239819593E+01
  70         V       0.85926667321297E+00 0.18228152554694E+01
  71         V       0.86918423890581E+00 0.23355328992931E+01
  72         V       0.88606570030370E+00 0.22068212733854E+01
  73         V       0.91713454240585E+00 0.20340149518953E+01
  74         V       0.92318438425940E+00 0.19809330349215E+01
  75         V       0.94926699549994E+00 0.20616819017312E+01
  76         V       0.97921910183463E+00 0.26157676150508E+01
  77         V       0.10321420792789E+01 0.22549663778020E+01
  78         V       0.11067986376403E+01 0.24610448955263E+01
  79         V       0.11538625918296E+01 0.23624380485115E+01
  80         V       0.11600558145097E+01 0.24195810483585E+01
  81         V       0.11945129657780E+01 0.23102545382279E+01
  82         V       0.12225798815515E+01 0.24684467795192E+01
  83         V       0.12474255877239E+01 0.24113296890478E+01
  84         V       0.12703508705183E+01 0.25999094496142E+01
  85         V       0.12852525627777E+01 0.24985791116589E+01
  86         V       0.13071518641020E+01 0.25590881391896E+01
  87         V       0.13522827776034E+01 0.24497019683552E+01
  88         V       0.13873094213657E+01 0.26126835328726E+01
  89         V       0.14295797981370E+01 0.28739690784969E+01
  90         V       0.14802852246238E+01 0.30537805749176E+01
  91         V       0.15200937250280E+01 0.31112561466856E+01
  92         V       0.15389146626980E+01 0.34447693408992E+01
  93         V       0.15667447044535E+01 0.29597099735091E+01
  94         V       0.15796617865471E+01 0.31364995839475E+01
  95         V       0.16096947886502E+01 0.34447027346418E+01
  96         V       0.16140316484348E+01 0.31634292873565E+01
  97         V       0.16501791520219E+01 0.25849157550890E+01
  98         V       0.16724929437708E+01 0.26886206265631E+01
  99         V       0.16818837160337E+01 0.27154320396881E+01
 100         V       0.17305939640779E+01 0.25328534233622E+01
 101         V       0.17917592813097E+01 0.26173511761060E+01
 102         V       0.18407525111774E+01 0.26645111887431E+01
 103         V       0.19185263490075E+01 0.27950044923951E+01
 104         V       0.19780188896259E+01 0.29549521989747E+01
 105         V       0.19945973074059E+01 0.29503570423951E+01
 106         V       0.20270204976548E+01 0.29180556592385E+01
 107         V       0.20527641042202E+01 0.29661336618979E+01
 108         V       0.21016554626463E+01 0.31735553303495E+01
 109         V       0.21343923653130E+01 0.30357151855475E+01
 110         V       0.21605304437118E+01 0.30033639237173E+01
 111         V       0.21620914489346E+01 0.29185836014171E+01
 112         V       0.21821753959049E+01 0.31550868179769E+01
 113         V       0.21992275808241E+01 0.30792315082631E+01
 114         V       0.22192805715652E+01 0.30283844719034E+01
 115         V       0.22358560384861E+01 0.30503760035723E+01
 116         V       0.22640329458565E+01 0.31184424402957E+01
 117         V       0.22878700942179E+01 0.31575166192935E+01
 118         V       0.23307047058806E+01 0.33632997898435E+01
 119         V       0.23552086820419E+01 0.33710029791980E+01
 120         V       0.23923924213648E+01 0.32814199592900E+01
 121         V       0.24595626716183E+01 0.33334336018931E+01
 122         V       0.24714088766233E+01 0.33432347205660E+01
 123         V       0.25006189838988E+01 0.32439317815591E+01
 124         V       0.25270370922119E+01 0.33487441499743E+01
 125         V       0.25385777542045E+01 0.33214659112205E+01
 126         V       0.25992640328998E+01 0.35602713711844E+01
 127         V       0.26331882610588E+01 0.36063625981552E+01
 128         V       0.26738135537165E+01 0.35246716081907E+01
 129         V       0.27068938832105E+01 0.36287685942115E+01
 130         V       0.27459434931744E+01 0.35212639317514E+01
 131         V       0.27771016734369E+01 0.36430288865853E+01
 132         V       0.28183881001274E+01 0.38234381802636E+01
 133         V       0.28646229249382E+01 0.37287599211992E+01
 134         V       0.28941398738564E+01 0.36302379315419E+01
 135         V       0.29167016490136E+01 0.37112154605846E+01
 136         V       0.29586789443755E+01 0.38672793973768E+01
 137         V       0.29887071470419E+01 0.38643957545013E+01
 138         V       0.30349934033354E+01 0.41760166883525E+01
 139         V       0.30533941667919E+01 0.40171610640556E+01
 140         V       0.31086140779488E+01 0.40316791974978E+01
 141         V       0.32174242247376E+01 0.44265628527928E+01
 142         V       0.32447203599887E+01 0.40791230272039E+01
 143         V       0.33256908070436E+01 0.47630608215699E+01
 144         V       0.33693854440605E+01 0.47459237742942E+01
 145         V       0.34481856648545E+01 0.46602636402699E+01
 146         V       0.35111274903869E+01 0.49292362205231E+01
 147         V       0.35972153942573E+01 0.49029881848014E+01
 148         V       0.36547710083369E+01 0.49008265541891E+01
 149         V       0.36867807793903E+01 0.50266307500295E+01
 150         V       0.37243144471613E+01 0.52222116648730E+01
 151         V       0.38966952720042E+01 0.55439010576626E+01
 152         V       0.44358333377792E+01 0.10343034096105E+02
 153         V       0.46107664891385E+01 0.10692093109052E+02
 154         V       0.46472416396734E+01 0.10723274376425E+02
 155         V       0.47710270467906E+01 0.10373045324952E+02
 156         V       0.48555992148497E+01 0.12096825987381E+02
 157         V       0.48966141244023E+01 0.10450187151723E+02
 Total kinetic energy from orbitals= 3.203006993907D+02
 Leave Link  601 at Fri Nov  4 21:06:24 2022, MaxMem= 3276800000 cpu:       1.7
 (Enter /local/g09-source/g09/l9999.exe)

 Test job not archived.
 1\1\GINC-WUX25\SP\UTD-wB97XD-Full\Gen\C3H7N1O2(1-,2)\ISSLERK\04-Nov-20
 22\0\\#p TD(full,nstates=1) wB97XD/GEN 6D Iop(6/7=3) Iop(9/40=14) scf(
 maxcyc=200,conver=8) nosym Guess(Read) Geom=AllCheck\\Comment\\-1,2\C,
 -5.051225953,0.470784076,0.809590727\C,-3.760154017,1.21131741,0.88929
 9027\N,-5.128800408,-0.717089144,1.739894197\H,-6.046911165,1.01446883
 ,1.117771917\H,-5.120513648,-0.017835847,-0.253650041\O,-6.307384602,-
 1.12064486,2.004308067\O,-4.06379149,-1.578582571,1.904516216\C,-3.266
 390158,1.603928117,2.435240351\H,-2.99065024,0.589255087,0.308685742\H
 ,-3.810403245,2.092604838,0.194830769\H,-3.143648533,0.694803671,3.039
 58677\H,-2.548135407,2.368979393,2.396743902\H,-4.12356849,2.044252317
 ,2.729827713\\Version=EM64L-G09RevA.02\HF=-323.5271807\S2=0.754781\S2-
 1=0.\S2A=0.750019\RMSD=1.424e-09\PG=C01 [X(C3H7N1O2)]\\@


 SEE YOU NOW,
 YOUR BAIT OF FALSEHOOD TAKES THIS CARP OF TRUTH.
 AND THUS DO WE OF WISDOM AND OF REACH...
 BY INDIRECTIONS FIND DIRECTIONS OUT.    -- HAMLET, II, 1
 Job cpu time:  0 days  0 hours 35 minutes 31.4 seconds.
 File lengths (MBytes):  RWF=     40 Int=      0 D2E=      0 Chk=      5 Scr=      1
 Normal termination of Gaussian 09 at Fri Nov  4 21:06:24 2022.
