 Entering Gaussian System, Link 0=g09
 Initial command:
 /local/g09-source/g09/l1.exe /scratch/1236642/TRAJ_10/Gau-40392.inp -scrdir=/scratch/1236642/TRAJ_10/
 Entering Link 1 = /local/g09-source/g09/l1.exe PID=     40394.
  
 Copyright (c) 1988,1990,1992,1993,1995,1998,2003,2009, Gaussian, Inc.
                  All Rights Reserved.
  
 This is part of the Gaussian(R) 09 program.  It is based on
 the Gaussian(R) 03 system (copyright 2003, Gaussian, Inc.),
 the Gaussian(R) 98 system (copyright 1998, Gaussian, Inc.),
 the Gaussian(R) 94 system (copyright 1995, Gaussian, Inc.),
 the Gaussian 92(TM) system (copyright 1992, Gaussian, Inc.),
 the Gaussian 90(TM) system (copyright 1990, Gaussian, Inc.),
 the Gaussian 88(TM) system (copyright 1988, Gaussian, Inc.),
 the Gaussian 86(TM) system (copyright 1986, Carnegie Mellon
 University), and the Gaussian 82(TM) system (copyright 1983,
 Carnegie Mellon University). Gaussian is a federally registered
 trademark of Gaussian, Inc.
  
 This software contains proprietary and confidential information,
 including trade secrets, belonging to Gaussian, Inc.
  
 This software is provided under written license and may be
 used, copied, transmitted, or stored only in accord with that
 written license.
  
 The following legend is applicable only to US Government
 contracts under FAR:
  
                    RESTRICTED RIGHTS LEGEND
  
 Use, reproduction and disclosure by the US Government is
 subject to restrictions as set forth in subparagraphs (a)
 and (c) of the Commercial Computer Software - Restricted
 Rights clause in FAR 52.227-19.
  
 Gaussian, Inc.
 340 Quinnipiac St., Bldg. 40, Wallingford CT 06492
  
  
 ---------------------------------------------------------------
 Warning -- This program may not be used in any manner that
 competes with the business of Gaussian, Inc. or will provide
 assistance to any competitor of Gaussian, Inc.  The licensee
 of this program is prohibited from giving any competitor of
 Gaussian, Inc. access to this program.  By using this program,
 the user acknowledges that Gaussian, Inc. is engaged in the
 business of creating and licensing software in the field of
 computational chemistry and represents and warrants to the
 licensee that it is not a competitor of Gaussian, Inc. and that
 it will not use this program in any manner prohibited above.
 ---------------------------------------------------------------
  

 Cite this work as:
 Gaussian 09, Revision A.02,
 M. J. Frisch, G. W. Trucks, H. B. Schlegel, G. E. Scuseria, 
 M. A. Robb, J. R. Cheeseman, G. Scalmani, V. Barone, B. Mennucci, 
 G. A. Petersson, H. Nakatsuji, M. Caricato, X. Li, H. P. Hratchian, 
 A. F. Izmaylov, J. Bloino, G. Zheng, J. L. Sonnenberg, M. Hada, 
 M. Ehara, K. Toyota, R. Fukuda, J. Hasegawa, M. Ishida, T. Nakajima, 
 Y. Honda, O. Kitao, H. Nakai, T. Vreven, J. A. Montgomery, Jr., 
 J. E. Peralta, F. Ogliaro, M. Bearpark, J. J. Heyd, E. Brothers, 
 K. N. Kudin, V. N. Staroverov, R. Kobayashi, J. Normand, 
 K. Raghavachari, A. Rendell, J. C. Burant, S. S. Iyengar, J. Tomasi, 
 M. Cossi, N. Rega, J. M. Millam, M. Klene, J. E. Knox, J. B. Cross, 
 V. Bakken, C. Adamo, J. Jaramillo, R. Gomperts, R. E. Stratmann, 
 O. Yazyev, A. J. Austin, R. Cammi, C. Pomelli, J. W. Ochterski, 
 R. L. Martin, K. Morokuma, V. G. Zakrzewski, G. A. Voth, 
 P. Salvador, J. J. Dannenberg, S. Dapprich, A. D. Daniels, 
 O. Farkas, J. B. Foresman, J. V. Ortiz, J. Cioslowski, 
 and D. J. Fox, Gaussian, Inc., Wallingford CT, 2009.
 
 ******************************************
 Gaussian 09:  EM64L-G09RevA.02 11-Jun-2009
                 4-Nov-2022 
 ******************************************
 %Chk=neu.chk
 %Nproc=10
 Will use up to   10 processors via shared memory.
 %Mem=25000Mb
 ----------------------------------------------------------------------
 #p wB97XD/GEN 6D Iop(6/7=3) Iop(9/40=14) scf(maxcyc=200,conver=8) nosy
 m Guess(Read,TCheck) GFInput
 ----------------------------------------------------------------------
 1/38=1/1;
 2/12=2,15=1,17=6,18=5,40=1/2;
 3/5=7,8=2,11=2,16=1,24=10,25=1,30=1,74=-58/1,2,3;
 4/5=102/1;
 5/5=2,6=8,7=200/2;
 6/7=3,8=2,9=2,10=2,28=1/1;
 99/5=1,9=1/99;
 Leave Link    1 at Fri Nov  4 21:14:16 2022, MaxMem= 3276800000 cpu:       0.6
 (Enter /local/g09-source/g09/l101.exe)
 -------
 Comment
 -------
 Symbolic Z-matrix:
 Charge =  0 Multiplicity = 1
 C                    -5.05179   0.47131   0.81159 
 C                    -3.76003   1.21043   0.88666 
 N                    -5.12908  -0.71819   1.73986 
 H                    -6.04986   1.02341   1.11845 
 H                    -5.12066  -0.02898  -0.26257 
 O                    -6.30678  -1.12037   2.00389 
 O                    -4.06402  -1.57808   1.90462 
 C                    -3.2659    1.60395   2.4358 
 H                    -2.98731   0.59653   0.31447 
 H                    -3.81349   2.08838   0.19513 
 H                    -3.14899   0.69242   3.03377 
 H                    -2.54643   2.37582   2.40652 
 H                    -4.1198    2.04617   2.73432 
 
 NAtoms=     13 NQM=     13 NQMF=      0 NMic=      0 NMicF=      0 NTot=     13.
                    Isotopes and Nuclear Properties:
 (Nuclear quadrupole moments (NQMom) in fm**2, nuclear magnetic moments (NMagM)
  in nuclear magnetons)

  Atom         1           2           3           4           5           6           7           8           9          10
 IAtWgt=          12          12          14           1           1          16          16          12           1           1
 AtmWgt=  12.0000000  12.0000000  14.0030740   1.0078250   1.0078250  15.9949146  15.9949146  12.0000000   1.0078250   1.0078250
 NucSpn=           0           0           2           1           1           0           0           0           1           1
 AtZEff=   0.0000000   0.0000000   0.0000000   0.0000000   0.0000000   0.0000000   0.0000000   0.0000000   0.0000000   0.0000000
 NQMom=    0.0000000   0.0000000   2.0440000   0.0000000   0.0000000   0.0000000   0.0000000   0.0000000   0.0000000   0.0000000
 NMagM=    0.0000000   0.0000000   0.4037610   2.7928460   2.7928460   0.0000000   0.0000000   0.0000000   2.7928460   2.7928460

  Atom        11          12          13
 IAtWgt=           1           1           1
 AtmWgt=   1.0078250   1.0078250   1.0078250
 NucSpn=           1           1           1
 AtZEff=   0.0000000   0.0000000   0.0000000
 NQMom=    0.0000000   0.0000000   0.0000000
 NMagM=    2.7928460   2.7928460   2.7928460
 Leave Link  101 at Fri Nov  4 21:14:16 2022, MaxMem= 3276800000 cpu:       1.5
 (Enter /local/g09-source/g09/l202.exe)
                          Input orientation:                          
 ---------------------------------------------------------------------
 Center     Atomic      Atomic             Coordinates (Angstroms)
 Number     Number       Type             X           Y           Z
 ---------------------------------------------------------------------
      1          6           0       -5.051791    0.471308    0.811591
      2          6           0       -3.760025    1.210425    0.886662
      3          7           0       -5.129081   -0.718195    1.739860
      4          1           0       -6.049857    1.023407    1.118451
      5          1           0       -5.120659   -0.028978   -0.262568
      6          8           0       -6.306784   -1.120372    2.003895
      7          8           0       -4.064017   -1.578085    1.904625
      8          6           0       -3.265900    1.603953    2.435795
      9          1           0       -2.987308    0.596532    0.314473
     10          1           0       -3.813488    2.088380    0.195126
     11          1           0       -3.148988    0.692422    3.033771
     12          1           0       -2.546432    2.375822    2.406516
     13          1           0       -4.119796    2.046167    2.734320
 ---------------------------------------------------------------------
                    Distance matrix (angstroms):
                    1          2          3          4          5
     1  C    0.000000
     2  C    1.490164   0.000000
     3  N    1.510818   2.514326   0.000000
     4  H    1.181149   2.309119   2.065709   0.000000
     5  H    1.186948   2.169833   2.117736   1.969299   0.000000
     6  O    2.351603   3.628609   1.272181   2.333627   2.781166
     7  O    2.523971   2.984032   1.378739   3.365916   2.865824
     8  C    2.666521   1.672972   3.057473   3.134142   3.658928
     9  H    2.127181   1.140771   2.889191   3.194966   2.296829
    10  H    2.127991   1.118877   3.463213   2.643490   2.530095
    11  H    2.933877   2.291674   2.754054   3.491854   3.908165
    12  H    3.528142   2.267358   4.085027   3.970154   4.419696
    13  H    2.654371   2.059549   3.106333   2.717021   3.780118
                    6          7          8          9         10
     6  O    0.000000
     7  O    2.291148   0.000000
     8  C    4.105541   3.323326   0.000000
     9  H    4.101320   2.901179   2.364851   0.000000
    10  H    4.447950   4.053161   2.356930   1.709511   0.000000
    11  H    3.783985   2.695821   1.096418   2.725787   3.232362
    12  H    5.150313   4.264779   1.055591   2.781526   2.564819
    13  H    3.917067   3.718429   1.006882   3.039677   2.557951
                   11         12         13
    11  H    0.000000
    12  H    1.894824   0.000000
    13  H    1.692563   1.640611   0.000000
 Symmetry turned off by external request.
 Stoichiometry    C3H7NO2
 Framework group  C1[X(C3H7NO2)]
 Deg. of freedom    33
 Full point group                 C1      NOp   1
 Rotational constants (GHZ):      5.8744410      2.3454367      2.0949397
 Leave Link  202 at Fri Nov  4 21:14:16 2022, MaxMem= 3276800000 cpu:       0.0
 (Enter /local/g09-source/g09/l301.exe)
 General basis read from cards:  (6D, 7F)
 Centers:   4  5  9 10 11 12 13
 S 3 1.0
     Exponent=  1.8731136960D+01 Coefficients=  3.3494604000D-02
     Exponent=  2.8253943650D+00 Coefficients=  2.3472695400D-01
     Exponent=  6.4012169200D-01 Coefficients=  8.1375732600D-01
 S 1 1.0
     Exponent=  1.6127775900D-01 Coefficients=  1.0000000000D+00
 P 1 1.0
     Exponent=  1.1000000000D+00 Coefficients=  1.0000000000D+00
 ****
 Centers:   1  2  8
 S 6 1.0
     Exponent=  3.0475248800D+03 Coefficients=  1.8347370000D-03
     Exponent=  4.5736951800D+02 Coefficients=  1.4037323000D-02
     Exponent=  1.0394868500D+02 Coefficients=  6.8842622000D-02
     Exponent=  2.9210155300D+01 Coefficients=  2.3218444300D-01
     Exponent=  9.2866629600D+00 Coefficients=  4.6794134800D-01
     Exponent=  3.1639269600D+00 Coefficients=  3.6231198500D-01
 S 3 1.0
     Exponent=  7.8682723500D+00 Coefficients= -1.1933242000D-01
     Exponent=  1.8812885400D+00 Coefficients= -1.6085415200D-01
     Exponent=  5.4424925800D-01 Coefficients=  1.1434564380D+00
 S 1 1.0
     Exponent=  1.6871447800D-01 Coefficients=  1.0000000000D+00
 S 1 1.0
     Exponent=  4.3800000000D-02 Coefficients=  1.0000000000D+00
 P 3 1.0
     Exponent=  7.8682723500D+00 Coefficients=  6.8999067000D-02
     Exponent=  1.8812885400D+00 Coefficients=  3.1642396100D-01
     Exponent=  5.4424925800D-01 Coefficients=  7.4430829100D-01
 P 1 1.0
     Exponent=  1.6871447800D-01 Coefficients=  1.0000000000D+00
 P 1 1.0
     Exponent=  4.3800000000D-02 Coefficients=  1.0000000000D+00
 D 1 1.0
     Exponent=  8.0000000000D-01 Coefficients=  1.0000000000D+00
 ****
 Centers:   3
 S 6 1.0
     Exponent=  4.1735114600D+03 Coefficients=  1.8347720000D-03
     Exponent=  6.2745791100D+02 Coefficients=  1.3994627000D-02
     Exponent=  1.4290209300D+02 Coefficients=  6.8586552000D-02
     Exponent=  4.0234329300D+01 Coefficients=  2.3224087300D-01
     Exponent=  1.2820212900D+01 Coefficients=  4.6906994800D-01
     Exponent=  4.3904370100D+00 Coefficients=  3.6045519900D-01
 S 3 1.0
     Exponent=  1.1626361860D+01 Coefficients= -1.1496118200D-01
     Exponent=  2.7162798070D+00 Coefficients= -1.6911747900D-01
     Exponent=  7.7221839700D-01 Coefficients=  1.1458519470D+00
 S 1 1.0
     Exponent=  2.1203149700D-01 Coefficients=  1.0000000000D+00
 S 1 1.0
     Exponent=  6.3900000000D-02 Coefficients=  1.0000000000D+00
 S 1 1.0
     Exponent=  1.8257143000D-02 Coefficients=  1.0000000000D+00
 S 1 1.0
     Exponent=  5.2163270000D-03 Coefficients=  1.0000000000D+00
 P 3 1.0
     Exponent=  1.1626361860D+01 Coefficients=  6.7579744000D-02
     Exponent=  2.7162798070D+00 Coefficients=  3.2390729600D-01
     Exponent=  7.7221839700D-01 Coefficients=  7.4089514000D-01
 P 1 1.0
     Exponent=  2.1203149700D-01 Coefficients=  1.0000000000D+00
 P 1 1.0
     Exponent=  6.3900000000D-02 Coefficients=  1.0000000000D+00
 P 1 1.0
     Exponent=  1.8257143000D-02 Coefficients=  1.0000000000D+00
 P 1 1.0
     Exponent=  5.2163270000D-03 Coefficients=  1.0000000000D+00
 D 1 1.0
     Exponent=  8.0000000000D-01 Coefficients=  1.0000000000D+00
 ****
 Centers:   6  7
 S 6 1.0
     Exponent=  5.4846716600D+03 Coefficients=  1.8310740000D-03
     Exponent=  8.2523494600D+02 Coefficients=  1.3950172000D-02
     Exponent=  1.8804695800D+02 Coefficients=  6.8445078000D-02
     Exponent=  5.2964500000D+01 Coefficients=  2.3271433600D-01
     Exponent=  1.6897570400D+01 Coefficients=  4.7019289800D-01
     Exponent=  5.7996353400D+00 Coefficients=  3.5852085300D-01
 S 3 1.0
     Exponent=  1.5539616250D+01 Coefficients= -1.1077755000D-01
     Exponent=  3.5999335860D+00 Coefficients= -1.4802626300D-01
     Exponent=  1.0137617500D+00 Coefficients=  1.1307670150D+00
 S 1 1.0
     Exponent=  2.7000582300D-01 Coefficients=  1.0000000000D+00
 S 1 1.0
     Exponent=  8.4500000000D-02 Coefficients=  1.0000000000D+00
 P 3 1.0
     Exponent=  1.5539616250D+01 Coefficients=  7.0874268000D-02
     Exponent=  3.5999335860D+00 Coefficients=  3.3975283900D-01
     Exponent=  1.0137617500D+00 Coefficients=  7.2715857700D-01
 P 1 1.0
     Exponent=  2.7000582300D-01 Coefficients=  1.0000000000D+00
 P 1 1.0
     Exponent=  8.4500000000D-02 Coefficients=  1.0000000000D+00
 D 1 1.0
     Exponent=  8.0000000000D-01 Coefficients=  1.0000000000D+00
 ****
 Ernie: Thresh=  0.10000D-02 Tol=  0.10000D-05 Strict=F.
 AO basis set in the form of general basis input (Overlap normalization):
      1 0
 S   6 1.00       0.000000000000
      0.3047524880D+04  0.1834737002D-02
      0.4573695180D+03  0.1403732301D-01
      0.1039486850D+03  0.6884262207D-01
      0.2921015530D+02  0.2321844432D+00
      0.9286662960D+01  0.4679413485D+00
      0.3163926960D+01  0.3623119854D+00
 S   3 1.00       0.000000000000
      0.7868272350D+01 -0.1193324200D+00
      0.1881288540D+01 -0.1608541520D+00
      0.5442492580D+00  0.1143456438D+01
 S   1 1.00       0.000000000000
      0.1687144780D+00  0.1000000000D+01
 S   1 1.00       0.000000000000
      0.4380000000D-01  0.1000000000D+01
 P   3 1.00       0.000000000000
      0.7868272350D+01  0.6899906698D-01
      0.1881288540D+01  0.3164239609D+00
      0.5442492580D+00  0.7443082908D+00
 P   1 1.00       0.000000000000
      0.1687144780D+00  0.1000000000D+01
 P   1 1.00       0.000000000000
      0.4380000000D-01  0.1000000000D+01
 D   1 1.00       0.000000000000
      0.8000000000D+00  0.1000000000D+01
 ****
      2 0
 S   6 1.00       0.000000000000
      0.3047524880D+04  0.1834737002D-02
      0.4573695180D+03  0.1403732301D-01
      0.1039486850D+03  0.6884262207D-01
      0.2921015530D+02  0.2321844432D+00
      0.9286662960D+01  0.4679413485D+00
      0.3163926960D+01  0.3623119854D+00
 S   3 1.00       0.000000000000
      0.7868272350D+01 -0.1193324200D+00
      0.1881288540D+01 -0.1608541520D+00
      0.5442492580D+00  0.1143456438D+01
 S   1 1.00       0.000000000000
      0.1687144780D+00  0.1000000000D+01
 S   1 1.00       0.000000000000
      0.4380000000D-01  0.1000000000D+01
 P   3 1.00       0.000000000000
      0.7868272350D+01  0.6899906698D-01
      0.1881288540D+01  0.3164239609D+00
      0.5442492580D+00  0.7443082908D+00
 P   1 1.00       0.000000000000
      0.1687144780D+00  0.1000000000D+01
 P   1 1.00       0.000000000000
      0.4380000000D-01  0.1000000000D+01
 D   1 1.00       0.000000000000
      0.8000000000D+00  0.1000000000D+01
 ****
      3 0
 S   6 1.00       0.000000000000
      0.4173511460D+04  0.1834772000D-02
      0.6274579110D+03  0.1399462700D-01
      0.1429020930D+03  0.6858655201D-01
      0.4023432930D+02  0.2322408730D+00
      0.1282021290D+02  0.4690699480D+00
      0.4390437010D+01  0.3604551990D+00
 S   3 1.00       0.000000000000
      0.1162636186D+02 -0.1149611820D+00
      0.2716279807D+01 -0.1691174791D+00
      0.7722183970D+00  0.1145851947D+01
 S   1 1.00       0.000000000000
      0.2120314970D+00  0.1000000000D+01
 S   1 1.00       0.000000000000
      0.6390000000D-01  0.1000000000D+01
 S   1 1.00       0.000000000000
      0.1825714300D-01  0.1000000000D+01
 S   1 1.00       0.000000000000
      0.5216327000D-02  0.1000000000D+01
 P   3 1.00       0.000000000000
      0.1162636186D+02  0.6757974397D-01
      0.2716279807D+01  0.3239072959D+00
      0.7722183970D+00  0.7408951397D+00
 P   1 1.00       0.000000000000
      0.2120314970D+00  0.1000000000D+01
 P   1 1.00       0.000000000000
      0.6390000000D-01  0.1000000000D+01
 P   1 1.00       0.000000000000
      0.1825714300D-01  0.1000000000D+01
 P   1 1.00       0.000000000000
      0.5216327000D-02  0.1000000000D+01
 D   1 1.00       0.000000000000
      0.8000000000D+00  0.1000000000D+01
 ****
      4 0
 S   3 1.00       0.000000000000
      0.1873113696D+02  0.3349460400D-01
      0.2825394365D+01  0.2347269540D+00
      0.6401216920D+00  0.8137573259D+00
 S   1 1.00       0.000000000000
      0.1612777590D+00  0.1000000000D+01
 P   1 1.00       0.000000000000
      0.1100000000D+01  0.1000000000D+01
 ****
      5 0
 S   3 1.00       0.000000000000
      0.1873113696D+02  0.3349460400D-01
      0.2825394365D+01  0.2347269540D+00
      0.6401216920D+00  0.8137573259D+00
 S   1 1.00       0.000000000000
      0.1612777590D+00  0.1000000000D+01
 P   1 1.00       0.000000000000
      0.1100000000D+01  0.1000000000D+01
 ****
      6 0
 S   6 1.00       0.000000000000
      0.5484671660D+04  0.1831074000D-02
      0.8252349460D+03  0.1395017200D-01
      0.1880469580D+03  0.6844507801D-01
      0.5296450000D+02  0.2327143360D+00
      0.1689757040D+02  0.4701928980D+00
      0.5799635340D+01  0.3585208530D+00
 S   3 1.00       0.000000000000
      0.1553961625D+02 -0.1107775501D+00
      0.3599933586D+01 -0.1480262631D+00
      0.1013761750D+01  0.1130767016D+01
 S   1 1.00       0.000000000000
      0.2700058230D+00  0.1000000000D+01
 S   1 1.00       0.000000000000
      0.8450000000D-01  0.1000000000D+01
 P   3 1.00       0.000000000000
      0.1553961625D+02  0.7087426804D-01
      0.3599933586D+01  0.3397528392D+00
      0.1013761750D+01  0.7271585774D+00
 P   1 1.00       0.000000000000
      0.2700058230D+00  0.1000000000D+01
 P   1 1.00       0.000000000000
      0.8450000000D-01  0.1000000000D+01
 D   1 1.00       0.000000000000
      0.8000000000D+00  0.1000000000D+01
 ****
      7 0
 S   6 1.00       0.000000000000
      0.5484671660D+04  0.1831074000D-02
      0.8252349460D+03  0.1395017200D-01
      0.1880469580D+03  0.6844507801D-01
      0.5296450000D+02  0.2327143360D+00
      0.1689757040D+02  0.4701928980D+00
      0.5799635340D+01  0.3585208530D+00
 S   3 1.00       0.000000000000
      0.1553961625D+02 -0.1107775501D+00
      0.3599933586D+01 -0.1480262631D+00
      0.1013761750D+01  0.1130767016D+01
 S   1 1.00       0.000000000000
      0.2700058230D+00  0.1000000000D+01
 S   1 1.00       0.000000000000
      0.8450000000D-01  0.1000000000D+01
 P   3 1.00       0.000000000000
      0.1553961625D+02  0.7087426804D-01
      0.3599933586D+01  0.3397528392D+00
      0.1013761750D+01  0.7271585774D+00
 P   1 1.00       0.000000000000
      0.2700058230D+00  0.1000000000D+01
 P   1 1.00       0.000000000000
      0.8450000000D-01  0.1000000000D+01
 D   1 1.00       0.000000000000
      0.8000000000D+00  0.1000000000D+01
 ****
      8 0
 S   6 1.00       0.000000000000
      0.3047524880D+04  0.1834737002D-02
      0.4573695180D+03  0.1403732301D-01
      0.1039486850D+03  0.6884262207D-01
      0.2921015530D+02  0.2321844432D+00
      0.9286662960D+01  0.4679413485D+00
      0.3163926960D+01  0.3623119854D+00
 S   3 1.00       0.000000000000
      0.7868272350D+01 -0.1193324200D+00
      0.1881288540D+01 -0.1608541520D+00
      0.5442492580D+00  0.1143456438D+01
 S   1 1.00       0.000000000000
      0.1687144780D+00  0.1000000000D+01
 S   1 1.00       0.000000000000
      0.4380000000D-01  0.1000000000D+01
 P   3 1.00       0.000000000000
      0.7868272350D+01  0.6899906698D-01
      0.1881288540D+01  0.3164239609D+00
      0.5442492580D+00  0.7443082908D+00
 P   1 1.00       0.000000000000
      0.1687144780D+00  0.1000000000D+01
 P   1 1.00       0.000000000000
      0.4380000000D-01  0.1000000000D+01
 D   1 1.00       0.000000000000
      0.8000000000D+00  0.1000000000D+01
 ****
      9 0
 S   3 1.00       0.000000000000
      0.1873113696D+02  0.3349460400D-01
      0.2825394365D+01  0.2347269540D+00
      0.6401216920D+00  0.8137573259D+00
 S   1 1.00       0.000000000000
      0.1612777590D+00  0.1000000000D+01
 P   1 1.00       0.000000000000
      0.1100000000D+01  0.1000000000D+01
 ****
     10 0
 S   3 1.00       0.000000000000
      0.1873113696D+02  0.3349460400D-01
      0.2825394365D+01  0.2347269540D+00
      0.6401216920D+00  0.8137573259D+00
 S   1 1.00       0.000000000000
      0.1612777590D+00  0.1000000000D+01
 P   1 1.00       0.000000000000
      0.1100000000D+01  0.1000000000D+01
 ****
     11 0
 S   3 1.00       0.000000000000
      0.1873113696D+02  0.3349460400D-01
      0.2825394365D+01  0.2347269540D+00
      0.6401216920D+00  0.8137573259D+00
 S   1 1.00       0.000000000000
      0.1612777590D+00  0.1000000000D+01
 P   1 1.00       0.000000000000
      0.1100000000D+01  0.1000000000D+01
 ****
     12 0
 S   3 1.00       0.000000000000
      0.1873113696D+02  0.3349460400D-01
      0.2825394365D+01  0.2347269540D+00
      0.6401216920D+00  0.8137573259D+00
 S   1 1.00       0.000000000000
      0.1612777590D+00  0.1000000000D+01
 P   1 1.00       0.000000000000
      0.1100000000D+01  0.1000000000D+01
 ****
     13 0
 S   3 1.00       0.000000000000
      0.1873113696D+02  0.3349460400D-01
      0.2825394365D+01  0.2347269540D+00
      0.6401216920D+00  0.8137573259D+00
 S   1 1.00       0.000000000000
      0.1612777590D+00  0.1000000000D+01
 P   1 1.00       0.000000000000
      0.1100000000D+01  0.1000000000D+01
 ****

 Integral buffers will be    131072 words long.
 Raffenetti 2 integral format.
 Two-electron integral symmetry is turned off.
   157 basis functions,   249 primitive gaussians,   157 cartesian basis functions
    24 alpha electrons       24 beta electrons
       nuclear repulsion energy       240.7802745616 Hartrees.
 IExCor= 4639 DFT=T Ex+Corr=wB97XD ExCW=0 ScaHFX=  1.000000
 ScaDFX=  1.000000  1.000000  1.000000  1.000000 ScalE2=  1.000000  1.000000
 IRadAn=      0 IRanWt=     -1 IRanGd=            0 ICorTp=0
  HFx wShort=  0.000000 wLong=  0.200000 cFull=  0.222036 cShort=  0.000000 cLong=  0.777964
  DFx wShort=  0.000000 wLong=  0.200000 cFull=  0.000000 cShort=  0.000000 cLong=  1.000000
 NAtoms=   13 NActive=   13 NUniq=   13 SFac= 7.50D-01 NAtFMM=   80 NAOKFM=F Big=F
 R6Disp: Dispersion energy =        -0.0058265339 Hartrees.
 Nuclear repulsion after empirical dispersion term =      240.7744480277 Hartrees.
 Leave Link  301 at Fri Nov  4 21:14:17 2022, MaxMem= 3276800000 cpu:       0.4
 (Enter /local/g09-source/g09/l302.exe)
 NPDir=0 NMtPBC=     1 NCelOv=     1 NCel=       1 NClECP=     1 NCelD=      1
         NCelK=      1 NCelE2=     1 NClLst=     1 CellRange=     0.0.
 One-electron integrals computed using PRISM.
 NBasis=   157 RedAO= T  NBF=   157
 NBsUse=   157 1.00D-06 NBFU=   157
 Precomputing XC quadrature grid using
 IXCGrd= 2 IRadAn=           0 IRanWt=          -1 IRanGd=           0 AccXCQ= 1.00D-10.
 NRdTot=     881 NPtTot=      113336 NUsed=      119685 NTot=      119717
 NSgBfM=   157   157   157   157   157 NAtAll=    13    13.
 Leave Link  302 at Fri Nov  4 21:14:17 2022, MaxMem= 3276800000 cpu:       3.0
 (Enter /local/g09-source/g09/l303.exe)
 DipDrv:  MaxL=1.
 Leave Link  303 at Fri Nov  4 21:14:17 2022, MaxMem= 3276800000 cpu:       0.4
 (Enter /local/g09-source/g09/l401.exe)
 Initial guess read from the checkpoint file:  neu.chk
 B after Tr=     0.000446    0.000666    0.001516
         Rot=    1.000000   -0.000011    0.000081   -0.000027 Ang=   0.01 deg.
 Guess basis will be translated and rotated to current coordinates.
 Leave Link  401 at Fri Nov  4 21:14:17 2022, MaxMem= 3276800000 cpu:       1.3
 (Enter /local/g09-source/g09/l502.exe)
 Closed shell SCF:
 Requested convergence on RMS density matrix=1.00D-08 within 200 cycles.
 Requested convergence on MAX density matrix=1.00D-06.
 Requested convergence on             energy=1.00D-06.
 No special actions if energy rises.
 Using DIIS extrapolation, IDIIS=  1040.
 Two-electron integral symmetry not used.
       119555 words used for storage of precomputed grid.
 IEnd=      238162 IEndB=      238162 NGot=  3276800000 MDV=  3276627045
 LenX=  3276627045 LenY=  3276601955
 Fock matrices will be formed incrementally for  20 cycles.

 Cycle   1  Pass 1  IDiag  1:
 FoFJK:  IHMeth= 1 ICntrl=     0 DoSepK=T KAlg= 1 I1Cent= 0 FoldK=F
 FoFCou: FMM=F IPFlag=           0 FMFlag=      100000 FMFlg1=           0
         NFxFlg=           0 DoJE=T BraDBF=F KetDBF=F FulRan=T
         Omega=  0.000000  0.000000  1.000000  0.000000  0.000000 ICntrl=     500 IOpCl=  0
         NMat0=    1 NMatS0=    1 NMatT0=    0 NMatD0=    1 NMtDS0=    0 NMtDT0=    0
         I1Cent=           0 NGrid=           0.
 Symmetry not used in FoFCou.
 E= -323.488304556490    
 DIIS: error= 3.08D-04 at cycle   1 NSaved=   1.
 NSaved= 1 IEnMin= 1 EnMin= -323.488304556490     IErMin= 1 ErrMin= 3.08D-04
 ErrMax= 3.08D-04 EMaxC= 1.00D-01 BMatC= 4.70D-05 BMatP= 4.70D-05
 IDIUse=3 WtCom= 9.97D-01 WtEn= 3.08D-03
 Coeff-Com:  0.100D+01
 Coeff-En:   0.100D+01
 Coeff:      0.100D+01
 Gap=     0.329 Goal=   None    Shift=    0.000
 RMSDP=8.29D-05 MaxDP=1.82D-03              OVMax= 2.30D-03

 Cycle   2  Pass 1  IDiag  1:
 RMSU=  5.86D-05    CP:  1.00D+00
 FoFJK:  IHMeth= 1 ICntrl=     0 DoSepK=T KAlg= 1 I1Cent= 0 FoldK=F
 E= -323.488369876865     Delta-E=       -0.000065320376 Rises=F Damp=F
 DIIS: error= 1.21D-04 at cycle   2 NSaved=   2.
 NSaved= 2 IEnMin= 2 EnMin= -323.488369876865     IErMin= 2 ErrMin= 1.21D-04
 ErrMax= 1.21D-04 EMaxC= 1.00D-01 BMatC= 7.04D-06 BMatP= 4.70D-05
 IDIUse=3 WtCom= 9.99D-01 WtEn= 1.21D-03
 Coeff-Com:  0.137D+00 0.863D+00
 Coeff-En:   0.000D+00 0.100D+01
 Coeff:      0.137D+00 0.863D+00
 Gap=     0.328 Goal=   None    Shift=    0.000
 RMSDP=2.74D-05 MaxDP=8.22D-04 DE=-6.53D-05 OVMax= 7.43D-04

 Cycle   3  Pass 1  IDiag  1:
 RMSU=  1.94D-05    CP:  1.00D+00  1.01D+00
 FoFJK:  IHMeth= 1 ICntrl=     0 DoSepK=T KAlg= 1 I1Cent= 0 FoldK=F
 E= -323.488375624235     Delta-E=       -0.000005747370 Rises=F Damp=F
 DIIS: error= 7.68D-05 at cycle   3 NSaved=   3.
 NSaved= 3 IEnMin= 3 EnMin= -323.488375624235     IErMin= 3 ErrMin= 7.68D-05
 ErrMax= 7.68D-05 EMaxC= 1.00D-01 BMatC= 2.56D-06 BMatP= 7.04D-06
 IDIUse=1 WtCom= 1.00D+00 WtEn= 0.00D+00
 Coeff-Com: -0.606D-01 0.356D+00 0.704D+00
 Coeff:     -0.606D-01 0.356D+00 0.704D+00
 Gap=     0.329 Goal=   None    Shift=    0.000
 RMSDP=1.30D-05 MaxDP=3.49D-04 DE=-5.75D-06 OVMax= 5.38D-04

 Cycle   4  Pass 1  IDiag  1:
 RMSU=  7.63D-06    CP:  1.00D+00  1.08D+00  8.58D-01
 FoFJK:  IHMeth= 1 ICntrl=     0 DoSepK=T KAlg= 1 I1Cent= 0 FoldK=F
 E= -323.488377744575     Delta-E=       -0.000002120340 Rises=F Damp=F
 DIIS: error= 6.74D-05 at cycle   4 NSaved=   4.
 NSaved= 4 IEnMin= 4 EnMin= -323.488377744575     IErMin= 4 ErrMin= 6.74D-05
 ErrMax= 6.74D-05 EMaxC= 1.00D-01 BMatC= 6.65D-07 BMatP= 2.56D-06
 IDIUse=1 WtCom= 1.00D+00 WtEn= 0.00D+00
 Coeff-Com: -0.448D-01 0.161D+00 0.424D+00 0.460D+00
 Coeff:     -0.448D-01 0.161D+00 0.424D+00 0.460D+00
 Gap=     0.329 Goal=   None    Shift=    0.000
 RMSDP=5.35D-06 MaxDP=2.00D-04 DE=-2.12D-06 OVMax= 3.32D-04

 Cycle   5  Pass 1  IDiag  1:
 RMSU=  3.26D-06    CP:  1.00D+00  1.08D+00  9.26D-01  8.18D-01
 FoFJK:  IHMeth= 1 ICntrl=     0 DoSepK=T KAlg= 1 I1Cent= 0 FoldK=F
 E= -323.488378209710     Delta-E=       -0.000000465135 Rises=F Damp=F
 DIIS: error= 2.75D-05 at cycle   5 NSaved=   5.
 NSaved= 5 IEnMin= 5 EnMin= -323.488378209710     IErMin= 5 ErrMin= 2.75D-05
 ErrMax= 2.75D-05 EMaxC= 1.00D-01 BMatC= 6.75D-08 BMatP= 6.65D-07
 IDIUse=1 WtCom= 1.00D+00 WtEn= 0.00D+00
 Coeff-Com: -0.632D-02-0.183D-01 0.284D-01 0.242D+00 0.754D+00
 Coeff:     -0.632D-02-0.183D-01 0.284D-01 0.242D+00 0.754D+00
 Gap=     0.329 Goal=   None    Shift=    0.000
 RMSDP=2.67D-06 MaxDP=6.92D-05 DE=-4.65D-07 OVMax= 1.45D-04

 Cycle   6  Pass 1  IDiag  1:
 RMSU=  1.19D-06    CP:  1.00D+00  1.08D+00  9.54D-01  9.92D-01  9.18D-01
 FoFJK:  IHMeth= 1 ICntrl=     0 DoSepK=T KAlg= 1 I1Cent= 0 FoldK=F
 E= -323.488378270263     Delta-E=       -0.000000060554 Rises=F Damp=F
 DIIS: error= 7.97D-06 at cycle   6 NSaved=   6.
 NSaved= 6 IEnMin= 6 EnMin= -323.488378270263     IErMin= 6 ErrMin= 7.97D-06
 ErrMax= 7.97D-06 EMaxC= 1.00D-01 BMatC= 1.58D-08 BMatP= 6.75D-08
 IDIUse=1 WtCom= 1.00D+00 WtEn= 0.00D+00
 Coeff-Com:  0.249D-03-0.262D-01-0.192D-01 0.986D-01 0.459D+00 0.488D+00
 Coeff:      0.249D-03-0.262D-01-0.192D-01 0.986D-01 0.459D+00 0.488D+00
 Gap=     0.329 Goal=   None    Shift=    0.000
 RMSDP=9.61D-07 MaxDP=2.51D-05 DE=-6.06D-08 OVMax= 3.06D-05

 Cycle   7  Pass 1  IDiag  1:
 RMSU=  5.10D-07    CP:  1.00D+00  1.08D+00  9.59D-01  1.01D+00  1.02D+00
                    CP:  8.03D-01
 FoFJK:  IHMeth= 1 ICntrl=     0 DoSepK=T KAlg= 1 I1Cent= 0 FoldK=F
 E= -323.488378282721     Delta-E=       -0.000000012458 Rises=F Damp=F
 DIIS: error= 1.93D-06 at cycle   7 NSaved=   7.
 NSaved= 7 IEnMin= 7 EnMin= -323.488378282721     IErMin= 7 ErrMin= 1.93D-06
 ErrMax= 1.93D-06 EMaxC= 1.00D-01 BMatC= 1.10D-09 BMatP= 1.58D-08
 IDIUse=1 WtCom= 1.00D+00 WtEn= 0.00D+00
 Coeff-Com:  0.178D-02-0.788D-02-0.151D-01-0.260D-01 0.160D-01 0.196D+00
 Coeff-Com:  0.835D+00
 Coeff:      0.178D-02-0.788D-02-0.151D-01-0.260D-01 0.160D-01 0.196D+00
 Coeff:      0.835D+00
 Gap=     0.329 Goal=   None    Shift=    0.000
 RMSDP=4.71D-07 MaxDP=9.20D-06 DE=-1.25D-08 OVMax= 2.39D-05

 Cycle   8  Pass 1  IDiag  1:
 RMSU=  1.91D-07    CP:  1.00D+00  1.08D+00  9.64D-01  1.03D+00  1.05D+00
                    CP:  9.22D-01  1.17D+00
 FoFJK:  IHMeth= 1 ICntrl=     0 DoSepK=T KAlg= 1 I1Cent= 0 FoldK=F
 E= -323.488378284513     Delta-E=       -0.000000001792 Rises=F Damp=F
 DIIS: error= 5.16D-07 at cycle   8 NSaved=   8.
 NSaved= 8 IEnMin= 8 EnMin= -323.488378284513     IErMin= 8 ErrMin= 5.16D-07
 ErrMax= 5.16D-07 EMaxC= 1.00D-01 BMatC= 8.24D-11 BMatP= 1.10D-09
 IDIUse=1 WtCom= 1.00D+00 WtEn= 0.00D+00
 Coeff-Com:  0.341D-03 0.509D-03-0.805D-03-0.147D-01-0.299D-01-0.121D-01
 Coeff-Com:  0.160D+00 0.897D+00
 Coeff:      0.341D-03 0.509D-03-0.805D-03-0.147D-01-0.299D-01-0.121D-01
 Coeff:      0.160D+00 0.897D+00
 Gap=     0.329 Goal=   None    Shift=    0.000
 RMSDP=1.68D-07 MaxDP=2.79D-06 DE=-1.79D-09 OVMax= 1.35D-05

 Cycle   9  Pass 1  IDiag  1:
 RMSU=  6.47D-08    CP:  1.00D+00  1.08D+00  9.65D-01  1.04D+00  1.06D+00
                    CP:  9.59D-01  1.29D+00  1.29D+00
 FoFJK:  IHMeth= 1 ICntrl=     0 DoSepK=T KAlg= 1 I1Cent= 0 FoldK=F
 E= -323.488378284799     Delta-E=       -0.000000000286 Rises=F Damp=F
 DIIS: error= 3.14D-07 at cycle   9 NSaved=   9.
 NSaved= 9 IEnMin= 9 EnMin= -323.488378284799     IErMin= 9 ErrMin= 3.14D-07
 ErrMax= 3.14D-07 EMaxC= 1.00D-01 BMatC= 1.90D-11 BMatP= 8.24D-11
 IDIUse=1 WtCom= 1.00D+00 WtEn= 0.00D+00
 Coeff-Com: -0.332D-03 0.165D-02 0.323D-02 0.242D-02-0.444D-02-0.476D-01
 Coeff-Com: -0.149D+00 0.142D+00 0.105D+01
 Coeff:     -0.332D-03 0.165D-02 0.323D-02 0.242D-02-0.444D-02-0.476D-01
 Coeff:     -0.149D+00 0.142D+00 0.105D+01
 Gap=     0.329 Goal=   None    Shift=    0.000
 RMSDP=1.07D-07 MaxDP=2.06D-06 DE=-2.86D-10 OVMax= 1.08D-05

 Cycle  10  Pass 1  IDiag  1:
 RMSU=  3.58D-08    CP:  1.00D+00  1.08D+00  9.65D-01  1.04D+00  1.06D+00
                    CP:  9.69D-01  1.35D+00  1.52D+00  1.52D+00
 FoFJK:  IHMeth= 1 ICntrl=     0 DoSepK=T KAlg= 1 I1Cent= 0 FoldK=F
 E= -323.488378284909     Delta-E=       -0.000000000110 Rises=F Damp=F
 DIIS: error= 1.40D-07 at cycle  10 NSaved=  10.
 NSaved=10 IEnMin=10 EnMin= -323.488378284909     IErMin=10 ErrMin= 1.40D-07
 ErrMax= 1.40D-07 EMaxC= 1.00D-01 BMatC= 3.42D-12 BMatP= 1.90D-11
 IDIUse=1 WtCom= 1.00D+00 WtEn= 0.00D+00
 Coeff-Com: -0.129D-03 0.160D-03 0.757D-03 0.340D-02 0.653D-02-0.751D-02
 Coeff-Com: -0.590D-01-0.177D+00 0.194D+00 0.104D+01
 Coeff:     -0.129D-03 0.160D-03 0.757D-03 0.340D-02 0.653D-02-0.751D-02
 Coeff:     -0.590D-01-0.177D+00 0.194D+00 0.104D+01
 Gap=     0.329 Goal=   None    Shift=    0.000
 RMSDP=5.50D-08 MaxDP=1.11D-06 DE=-1.10D-10 OVMax= 5.83D-06

 Cycle  11  Pass 1  IDiag  1:
 RMSU=  1.24D-08    CP:  1.00D+00  1.08D+00  9.65D-01  1.04D+00  1.06D+00
                    CP:  9.72D-01  1.36D+00  1.63D+00  1.92D+00  1.43D+00
 FoFJK:  IHMeth= 1 ICntrl=     0 DoSepK=T KAlg= 1 I1Cent= 0 FoldK=F
 E= -323.488378284934     Delta-E=       -0.000000000025 Rises=F Damp=F
 DIIS: error= 4.53D-08 at cycle  11 NSaved=  11.
 NSaved=11 IEnMin=11 EnMin= -323.488378284934     IErMin=11 ErrMin= 4.53D-08
 ErrMax= 4.53D-08 EMaxC= 1.00D-01 BMatC= 4.39D-13 BMatP= 3.42D-12
 IDIUse=1 WtCom= 1.00D+00 WtEn= 0.00D+00
 Coeff-Com:  0.274D-04-0.235D-03-0.352D-03 0.432D-03 0.182D-02 0.583D-02
 Coeff-Com:  0.120D-01-0.559D-01-0.133D+00 0.183D+00 0.987D+00
 Coeff:      0.274D-04-0.235D-03-0.352D-03 0.432D-03 0.182D-02 0.583D-02
 Coeff:      0.120D-01-0.559D-01-0.133D+00 0.183D+00 0.987D+00
 Gap=     0.329 Goal=   None    Shift=    0.000
 RMSDP=2.03D-08 MaxDP=3.95D-07 DE=-2.51D-11 OVMax= 2.08D-06

 Cycle  12  Pass 1  IDiag  1:
 RMSU=  4.95D-09    CP:  1.00D+00  1.08D+00  9.65D-01  1.04D+00  1.06D+00
                    CP:  9.72D-01  1.36D+00  1.64D+00  2.06D+00  1.67D+00
                    CP:  1.35D+00
 FoFJK:  IHMeth= 1 ICntrl=     0 DoSepK=T KAlg= 1 I1Cent= 0 FoldK=F
 E= -323.488378284936     Delta-E=       -0.000000000002 Rises=F Damp=F
 DIIS: error= 1.66D-08 at cycle  12 NSaved=  12.
 NSaved=12 IEnMin=12 EnMin= -323.488378284936     IErMin=12 ErrMin= 1.66D-08
 ErrMax= 1.66D-08 EMaxC= 1.00D-01 BMatC= 8.95D-14 BMatP= 4.39D-13
 IDIUse=1 WtCom= 1.00D+00 WtEn= 0.00D+00
 Coeff-Com:  0.222D-04-0.693D-04-0.164D-03-0.285D-03-0.783D-03 0.261D-02
 Coeff-Com:  0.993D-02 0.151D-01-0.518D-01-0.117D+00 0.191D+00 0.951D+00
 Coeff:      0.222D-04-0.693D-04-0.164D-03-0.285D-03-0.783D-03 0.261D-02
 Coeff:      0.993D-02 0.151D-01-0.518D-01-0.117D+00 0.191D+00 0.951D+00
 Gap=     0.329 Goal=   None    Shift=    0.000
 RMSDP=6.69D-09 MaxDP=1.43D-07 DE=-1.71D-12 OVMax= 5.72D-07

 SCF Done:  E(RwB97XD) =  -323.488378285     A.U. after   12 cycles
             Convg  =    0.6687D-08             -V/T =  2.0113
 KE= 3.198820078385D+02 PE=-1.236358514042D+03 EE= 3.522136798906D+02
 Leave Link  502 at Fri Nov  4 21:14:38 2022, MaxMem= 3276800000 cpu:     204.9
 (Enter /local/g09-source/g09/l601.exe)
 Copying SCF densities to generalized density rwf, IOpCl= 0 IROHF=0.

 **********************************************************************

            Population analysis using the SCF density.

 **********************************************************************

 Alpha  occ. eigenvalues --  -19.34225 -19.32154 -14.70080 -10.40195 -10.34235
 Alpha  occ. eigenvalues --  -10.30602  -1.28418  -1.10334  -0.94868  -0.84950
 Alpha  occ. eigenvalues --   -0.77618  -0.69290  -0.62145  -0.61522  -0.59578
 Alpha  occ. eigenvalues --   -0.55010  -0.53769  -0.50317  -0.48509  -0.45178
 Alpha  occ. eigenvalues --   -0.42682  -0.40415  -0.39173  -0.38027
 Alpha virt. eigenvalues --   -0.05172   0.00738   0.01354   0.01436   0.01718
 Alpha virt. eigenvalues --    0.04612   0.06248   0.06720   0.07267   0.09339
 Alpha virt. eigenvalues --    0.09838   0.10905   0.11852   0.12365   0.13594
 Alpha virt. eigenvalues --    0.14488   0.15628   0.16197   0.16515   0.17625
 Alpha virt. eigenvalues --    0.18441   0.20115   0.21892   0.22511   0.22745
 Alpha virt. eigenvalues --    0.23611   0.25915   0.26355   0.28458   0.29514
 Alpha virt. eigenvalues --    0.30968   0.31360   0.33232   0.34537   0.34878
 Alpha virt. eigenvalues --    0.36063   0.36857   0.37905   0.38487   0.39553
 Alpha virt. eigenvalues --    0.40273   0.41905   0.47295   0.48287   0.54659
 Alpha virt. eigenvalues --    0.68528   0.69489   0.72797   0.75419   0.76841
 Alpha virt. eigenvalues --    0.77152   0.79826   0.84584   0.90909   0.95156
 Alpha virt. eigenvalues --    0.97081   1.02048   1.03085   1.06765   1.08157
 Alpha virt. eigenvalues --    1.10284   1.13297   1.17879   1.19928   1.23044
 Alpha virt. eigenvalues --    1.25088   1.28786   1.30605   1.33796   1.34343
 Alpha virt. eigenvalues --    1.36853   1.39439   1.43397   1.44495   1.48199
 Alpha virt. eigenvalues --    1.50316   1.57163   1.66848   1.70926   1.75449
 Alpha virt. eigenvalues --    1.78328   1.80485   1.83842   1.87465   1.89672
 Alpha virt. eigenvalues --    1.90971   1.92437   1.95316   1.98275   1.99701
 Alpha virt. eigenvalues --    2.02828   2.04298   2.07520   2.08873   2.17107
 Alpha virt. eigenvalues --    2.21446   2.25590   2.28795   2.30166   2.33400
 Alpha virt. eigenvalues --    2.35045   2.40028   2.44109   2.46417   2.50633
 Alpha virt. eigenvalues --    2.53844   2.56414   2.58283   2.64815   2.71035
 Alpha virt. eigenvalues --    2.74880   2.76208   2.79836   2.81806   2.85261
 Alpha virt. eigenvalues --    2.93824   2.96796   3.05881   3.08523   3.12539
 Alpha virt. eigenvalues --    3.22971   3.35524   3.40669   3.47566   3.52608
 Alpha virt. eigenvalues --    3.56740   3.74878   4.15403   4.36662   4.46092
 Alpha virt. eigenvalues --    4.58538   4.60182   4.71260
     Molecular Orbital Coefficients:
                           1         2         3         4         5
                           O         O         O         O         O
     Eigenvalues --  -.19342247981009E+02 -.19321539967914E+02 -.14700797444842E+02 -.10401947544543E+02 -.10342348793620E+02
   1 1   C  1S       -.66506701250514E-05 0.39654180005245E-05 -.29805946998984E-04 0.99368600923207E+00 -.24675587875577E-02
   2        2S       0.58959060755597E-04 0.39888746649711E-04 -.13105628022674E-03 0.46735336330695E-01 -.36547554230331E-03
   3        3S       0.64517693540776E-04 -.55806580159833E-04 0.62854429184825E-03 -.22808747674897E-01 0.60771312336062E-02
   4        4S       -.79220521791319E-02 -.20283027538554E-02 0.10796911139402E-02 -.19023674587152E-01 0.24379311058386E-02
   5        5PX      -.16514256678427E-04 0.28972558897099E-04 -.11817613759516E-04 0.13587934154846E-03 -.14460975911229E-03
   6        5PY      0.39851372501372E-04 -.15942451733582E-04 -.19525687360696E-03 -.76329209321497E-03 -.10228318757122E-03
   7        5PZ      -.17099976037543E-04 0.52498010137097E-05 0.15078263382146E-03 0.52222875508465E-03 0.35385851315381E-05
   8        6PX      0.63599315375554E-04 -.15835505185258E-03 0.99777097092307E-05 -.23754860266105E-02 0.20848534386767E-02
   9        6PY      -.14494089425117E-03 -.12279077948493E-04 -.24784199917916E-03 0.16182236271525E-02 0.16732276545145E-02
  10        6PZ      -.69081512183582E-05 -.32604595976400E-05 0.15540069002706E-03 -.19754599604764E-02 0.44427779148319E-03
  11        7PX      -.93985608013778E-03 -.18541093116714E-02 0.27380909974659E-03 -.25796303259706E-02 0.43712408073296E-03
  12        7PY      -.22622426034780E-03 -.52853283230555E-03 0.24614315977943E-03 0.89239959446527E-03 -.33082649119459E-03
  13        7PZ      -.68405494079355E-03 0.90438813338982E-03 0.63277900368625E-05 -.22382914531909E-02 0.10828183787032E-03
  14        8XX      -.63838712041035E-04 -.10733406787438E-04 -.31631175479836E-04 -.71393114217045E-02 -.40603564279627E-03
  15        8YY      -.60080253160825E-04 -.75106851278568E-05 0.13703180356981E-03 -.72691317004685E-02 -.21283637405895E-03
  16        8ZZ      -.43573699277338E-04 0.35890608245434E-05 0.63019584806268E-04 -.71704697919570E-02 -.11905739204915E-03
  17        8XY      -.42035224231781E-04 0.67515294940362E-05 0.18083000393067E-04 -.54792743741733E-05 -.18550954764842E-03
  18        8XZ      0.39748235609765E-04 -.97753870470490E-05 -.19843357307849E-04 -.11145235899769E-03 -.58238363852919E-04
  19        8YZ      0.28920186611764E-04 0.74036938571437E-05 -.14989754535764E-03 0.14427761935663E-03 0.24983369979721E-04
  20 2   C  1S       -.37529913865653E-05 0.43097945695871E-05 0.89835554431990E-05 0.21922698959039E-02 0.99358749673050E+00
  21        2S       -.14754565366834E-04 -.14576705958247E-04 0.70015624156252E-04 -.16641646600941E-03 0.46946187946531E-01
  22        3S       0.19710130235443E-03 -.12020828767684E-03 -.17155184520711E-03 0.56088151413793E-02 -.21105305245369E-01
  23        4S       0.80042840681861E-02 0.22499022857997E-02 -.10879207450786E-02 0.14918529058104E-01 -.16997092760239E-02
  24        5PX      0.32756689374048E-06 -.11528110525332E-04 0.13529666901733E-04 0.93426059232325E-04 -.39303203497324E-03
  25        5PY      0.17661389754023E-04 -.43819762851288E-05 -.34916770492086E-05 -.38680900230019E-06 -.19644463391699E-03
  26        5PZ      -.39970742020661E-05 -.58861695410749E-05 0.82693084488661E-05 0.66947968353284E-04 -.26727097320596E-03
  27        6PX      -.75120703975888E-04 0.46616410434049E-04 0.36492540230056E-04 -.21865186719273E-02 0.15587071852110E-02
  28        6PY      -.12778876641295E-03 -.13908918431391E-03 0.21999105331664E-03 -.13991946683572E-02 0.11144233517621E-02
  29        6PZ      0.82106647502962E-05 0.46438169861338E-04 -.86970325897741E-04 -.24328727839525E-03 -.69934155479431E-03
  30        7PX      -.16415000393315E-02 -.91296119031195E-03 0.21725033828098E-03 -.15488598284203E-02 -.23599460882872E-03
  31        7PY      -.14264306502310E-02 -.85292301299132E-03 0.87544844960831E-04 -.11727099731905E-02 0.38139091804024E-03
  32        7PZ      0.67447476577571E-03 -.80211442431646E-03 -.46297086789661E-04 0.19228083845132E-02 0.81948885032632E-03
  33        8XX      0.18867671395785E-04 0.10480744079467E-04 0.12608575585324E-05 -.42655373639265E-03 -.74228726817858E-02
  34        8YY      -.18024240009015E-04 0.37083587852867E-04 -.24624491046853E-04 -.19356699647593E-03 -.72680814931204E-02
  35        8ZZ      -.77938285601695E-05 0.18076901118358E-04 0.80006516135074E-05 -.12876106637279E-03 -.75053516953192E-02
  36        8XY      0.87286926693489E-06 0.26318538619000E-05 -.29061315943710E-04 -.12464909329555E-03 -.97775897540665E-04
  37        8XZ      0.13258689096486E-04 -.47435465450303E-05 0.14295878680094E-04 -.81039629855902E-04 -.11856454756612E-03
  38        8YZ      0.82450564410792E-05 -.11103353403983E-04 0.13180611518995E-04 -.27260126506464E-04 -.13602012490855E-03
  39 3   N  1S       -.25535656613746E-04 -.26381131231806E-04 0.99317611888446E+00 -.66894125987844E-04 0.49762280180482E-05
  40        2S       0.20928915653882E-03 0.11970962251902E-03 0.32970773529610E-01 0.10854198841694E-03 0.17775183030816E-04
  41        3S       0.34977649004593E-03 0.13204405036703E-03 0.19763562953601E-02 0.16221067920515E-02 -.17310002765172E-02
  42        4S       0.10128111078108E-01 0.48718665451595E-02 -.24290729711537E-03 0.14527679925922E-01 -.54584511448076E-02
  43        5S       0.23823836311222E-04 -.11948887104284E-03 -.25422570046668E-04 0.14542712010666E-02 -.11414435578561E-03
  44        6S       0.10161225741365E-04 0.15533798429004E-06 -.64571978519531E-05 -.23569362199128E-03 0.36583766650236E-04
  45        7PX      -.27291374526114E-03 0.22512058789933E-03 -.44131884974840E-03 0.26626061550869E-04 -.49626747815225E-04
  46        7PY      -.10703363328966E-03 -.19250633355073E-03 -.36334836055709E-03 0.33237658467344E-04 -.42581184659481E-04
  47        7PZ      0.51933872684445E-04 0.39712512107143E-04 0.76879416957112E-04 0.70464096865622E-04 0.52807402510241E-04
  48        8PX      0.25637513547288E-03 -.19420565856512E-04 0.85014269278653E-04 0.14728289621278E-02 0.16354145723284E-02
  49        8PY      0.15016046040191E-03 -.10536251586274E-03 0.17062241533997E-03 0.15750031331533E-02 0.19106779420042E-03
  50        8PZ      0.78397820090676E-05 0.42745806488864E-04 0.16637000986352E-03 -.15351739765090E-02 -.36845318007684E-03
  51        9PX      -.76887110684066E-02 0.64571754051102E-02 -.13353196056850E-03 0.32453486655728E-02 0.11263576775597E-02
  52        9PY      -.10765781377589E-02 -.26457255566387E-02 -.17787863639585E-03 0.58173939161286E-02 0.15000169378800E-02
  53        9PZ      0.95670014600444E-03 0.83821872460273E-04 -.65896515823219E-04 -.39020689417894E-02 -.99172796400057E-03
  54       10PX      0.53347604484895E-04 0.57644909342120E-04 -.43080992501734E-04 -.12065994911708E-03 -.11713484156328E-03
  55       10PY      0.99233362040133E-04 -.62892398474044E-04 -.37814421611397E-04 0.20511178257129E-03 -.28423391551851E-03
  56       10PZ      -.22446910847001E-04 0.64049507311913E-04 0.17698212124399E-04 0.23729461820198E-04 0.10382532439541E-03
  57       11PX      -.33865028598234E-05 -.12784347546736E-04 0.96760335727414E-05 0.29767706734240E-04 0.49385080115461E-04
  58       11PY      -.52253395765513E-05 0.16034827934112E-04 0.41737711488280E-05 -.24004923809708E-04 0.74258418767128E-04
  59       11PZ      -.40894287371854E-05 -.13683958010561E-04 -.38116783839106E-05 -.43577251939371E-04 -.71162514709256E-04
  60       12XX      -.26277835967979E-03 0.86763910896975E-04 -.72159702784904E-02 -.11141385222550E-03 -.13867685435335E-03
  61       12YY      -.84118381169591E-04 0.41798773845836E-04 -.74428141615268E-02 -.28276567202404E-03 0.24327312906282E-04
  62       12ZZ      -.10203385640319E-03 -.52658182486528E-04 -.73966246361921E-02 -.16422506230598E-03 0.16162681470806E-05
  63       12XY      -.76180503891520E-04 -.11434708477262E-03 0.92629793164230E-04 -.43985840210227E-04 -.44710002564310E-04
  64       12XZ      0.48850221727471E-04 0.15629591924729E-04 -.44327658388517E-04 -.22346613773876E-04 0.77064005116744E-04
  65       12YZ      -.53011095825193E-05 -.18420853402594E-04 0.61651688323259E-04 0.30890657733754E-03 -.29021092149303E-04
  66 4   H  1S       0.42808358346706E-04 -.43608373987181E-04 -.43713997839847E-04 -.19573020329497E-04 -.19843258668053E-03
  67        2S       -.86870514499505E-05 0.22939499589785E-03 -.13783304314976E-03 0.20947185569793E-02 -.51754933925044E-03
  68        3PX      -.23756888503652E-05 -.26746729817023E-05 -.15435932026170E-04 -.18884687944313E-03 -.62023649739537E-04
  69        3PY      -.13777663300048E-04 0.45008022815235E-05 0.56523918790954E-04 0.13883377923019E-03 -.47638069517171E-04
  70        3PZ      0.41998599541576E-05 0.24341209353455E-05 -.28947319707679E-04 0.13904226648386E-03 -.24325856344814E-05
  71 5   H  1S       -.89734872644386E-05 0.54659392835372E-06 -.46843803928798E-04 0.11545441321394E-03 -.12544419392081E-03
  72        2S       0.54603008160739E-05 -.52482941657648E-04 -.12594907687764E-03 0.21303377821452E-02 -.84323087289844E-04
  73        3PX      -.13572221738403E-05 0.14069800063270E-05 0.32937048052662E-05 0.53309526723735E-04 0.31727920411770E-04
  74        3PY      -.77300642719106E-05 -.75191095631323E-05 0.33837390278768E-04 -.16186465761075E-03 0.21230962803059E-04
  75        3PZ      0.92651033475828E-05 0.97510599194670E-05 -.45769693788513E-04 -.22399907353557E-03 0.81233062890178E-05
  76 6   O  1S       0.99279799658221E+00 0.41828115505340E-03 -.42896462097675E-04 -.48667847558761E-04 -.37042349386994E-04
  77        2S       0.24569494322719E-01 0.17029355429682E-03 0.17252728136030E-03 -.31170730711427E-03 -.19853245099818E-03
  78        3S       0.15106061557854E-01 -.72660381151541E-03 0.86135709728116E-04 0.15065139245161E-02 0.14747682726803E-02
  79        4S       -.16843942988240E-01 0.42043721139916E-02 -.13973513028092E-03 0.13277858607150E-02 0.40282351039974E-02
  80        5PX      0.12367001519674E-02 -.16404770865818E-04 0.16468066827473E-03 -.52604696168644E-04 -.19346382465391E-04
  81        5PY      0.46389926591340E-03 0.89469802315287E-05 0.64417006638492E-04 -.74173208648573E-04 -.23077220475927E-04
  82        5PZ      -.27760616617703E-03 0.18418736691285E-05 -.40857092714767E-04 0.38533375401093E-04 0.16135159437653E-04
  83        6PX      -.50670991216711E-03 -.17114432335402E-04 -.53050497507046E-05 0.93006187827746E-03 0.98941473907711E-03
  84        6PY      -.20461367978101E-03 -.30155679740214E-04 -.61606140607450E-04 0.41747431262743E-03 0.52417483482081E-03
  85        6PZ      0.90638062298155E-04 -.85499498058209E-05 -.14480575797681E-04 -.21739294274479E-03 -.29958299366960E-03
  86        7PX      -.24690371153703E-02 0.54309704683413E-03 -.13532588164745E-04 -.17540817090758E-03 0.70284664018837E-03
  87        7PY      -.10642579766962E-02 0.79585107049010E-03 0.26850995411859E-04 -.11915689529070E-02 0.22202835035965E-05
  88        7PZ      0.69700937621337E-03 -.21413992181196E-03 0.18726482334239E-04 0.76903240474863E-03 0.22286288532974E-04
  89        8XX      -.81696746541478E-02 -.63507547288185E-05 -.18494164272260E-03 0.24215551001670E-04 0.45501207230697E-04
  90        8YY      -.81548762282488E-02 0.95228074938351E-04 0.17904195590571E-04 -.14588039760013E-03 -.11504067017302E-03
  91        8ZZ      -.81677801602491E-02 0.85741535535771E-04 0.51034440749660E-04 -.19199550062333E-03 -.11942025486351E-03
  92        8XY      -.12083276071179E-04 0.24833269611155E-04 -.96742783716472E-04 0.74671043586829E-04 0.12057768037826E-03
  93        8XZ      -.33321311167999E-05 0.31686312736997E-05 0.57058337238672E-04 -.20623395162992E-04 -.51172125890696E-04
  94        8YZ      -.11806248703623E-04 -.31484464236932E-05 0.33922745569478E-04 -.13780784476232E-03 -.35353755581555E-04
  95 7   O  1S       -.36981808413167E-03 0.99286667329660E+00 -.37508407231176E-04 -.17673011022128E-04 0.14791163299254E-04
  96        2S       0.10121273344381E-03 0.24522464720441E-01 0.69841839416205E-04 -.10130888860061E-03 0.10109896886383E-03
  97        3S       -.55345086982783E-03 0.14281198443939E-01 0.16094734245688E-03 0.54934018868698E-04 -.81228570730310E-03
  98        4S       0.34158108074618E-02 -.13895622131006E-01 0.22339868392205E-04 -.28693216355525E-02 0.21040043529352E-02
  99        5PX      0.28333111915315E-04 -.78865396707447E-03 -.15749742101232E-03 0.25626256577952E-04 -.26751662491014E-04
 100        5PY      -.57971034453520E-05 0.68819053606531E-03 0.13612903833532E-03 -.55808776759341E-04 -.49268693870390E-04
 101        5PZ      -.65484094605468E-06 -.13095034231700E-03 -.27217321059501E-04 0.51841964709243E-04 0.17379394709138E-04
 102        6PX      -.65978491537214E-04 0.51617282912095E-03 -.25044632773625E-03 -.13853789311832E-03 0.88114243517675E-04
 103        6PY      -.30874914458927E-05 -.37657477675937E-03 0.10089477361334E-03 -.13193711542001E-03 -.13802591552609E-03
 104        6PZ      -.15029720129261E-05 0.63238857424816E-04 -.45560838429521E-04 0.26616925681895E-04 0.25457727156144E-04
 105        7PX      -.16054903643214E-04 0.15666176969204E-02 0.12324086996121E-03 -.23209242932120E-03 -.70870785033459E-03
 106        7PY      0.96603775157270E-03 -.19394553228602E-02 0.28116653459036E-04 -.17768527540756E-02 0.25349351305989E-03
 107        7PZ      -.27948817331633E-03 0.44028072114436E-03 0.27771792009410E-04 0.89130276418265E-03 0.27957827951331E-03
 108        8XX      -.30622388842406E-04 -.81312802621637E-02 0.56765855508657E-04 0.37419889676558E-04 0.69151485131130E-04
 109        8YY      0.99155118580875E-04 -.80894712179607E-02 -.53476680916498E-05 -.12659889920013E-03 0.83950650170991E-05
 110        8ZZ      0.53121100201269E-04 -.80102073774384E-02 -.19812880148954E-04 -.87813579427798E-04 -.12744074923420E-04
 111        8XY      0.76052796075441E-05 0.12447836825862E-03 -.56760586436736E-04 -.52732144323717E-04 0.70197400222156E-05
 112        8XZ      0.13284044109530E-04 -.23690631971474E-04 0.18640770649449E-04 -.80854339016415E-04 -.17513725375168E-04
 113        8YZ      -.25326579337009E-04 0.76572374166867E-05 0.22428092050014E-05 -.54851664333790E-04 0.13789009540103E-04
 114 8   C  1S       -.35695142691274E-05 0.55263571806623E-05 0.63935273201117E-05 -.29910442337326E-04 0.10779170441556E-02
 115        2S       -.14150011680452E-04 0.13326817858783E-04 0.11607973127583E-04 -.35161320347443E-04 -.27713307724939E-03
 116        3S       0.10174870311203E-03 -.23123983306856E-03 0.43928714457536E-05 -.25188454042772E-03 0.49304292814528E-02
 117        4S       -.14252075158601E-02 0.97851960378287E-03 0.20763152347308E-03 -.52053473774996E-02 0.39403661588932E-03
 118        5PX      -.15667931680204E-07 0.31586052241086E-05 -.17684881034983E-04 0.55405863738719E-04 -.32122850507529E-05
 119        5PY      -.12635971986487E-06 -.93181867163792E-05 -.11380337834837E-04 -.10341023685923E-04 -.66761012701041E-04
 120        5PZ      -.72847555222681E-05 0.11723406720960E-04 -.77579605676625E-05 0.60892617333753E-04 -.40311936519921E-04
 121        6PX      -.22177393225907E-04 0.14593056117694E-04 0.95795979759295E-04 0.16258367513741E-03 -.78968484252299E-03
 122        6PY      0.31444701774990E-04 0.12701354676606E-03 -.42383417615360E-05 0.19871206775981E-03 -.48086836011540E-03
 123        6PZ      -.34221119914511E-04 -.15621172332954E-04 -.45504812709581E-06 0.28684115527947E-03 -.19107768995992E-02
 124        7PX      0.36058560419603E-03 0.82330731774848E-04 -.29643659171817E-04 0.60489271943450E-03 0.10933779978686E-03
 125        7PY      0.29991574992151E-03 0.13165786053759E-03 -.23750222692236E-04 0.38842256694362E-03 -.93474824502012E-04
 126        7PZ      0.23639137346121E-03 -.43046227203227E-03 -.20656554049366E-04 0.13645579614766E-02 0.12204392755313E-05
 127        8XX      -.40320841627306E-05 0.80476583007532E-05 0.11656290795125E-04 0.11950061143054E-04 -.24615717096521E-03
 128        8YY      -.50734833839958E-05 0.19903398418485E-04 0.26617462369662E-04 -.52567829570177E-04 -.12331977739913E-03
 129        8ZZ      -.68320942997289E-05 0.11286617659913E-04 0.14306921093139E-04 -.46717239702110E-04 -.35203064155200E-03
 130        8XY      0.20675517227877E-07 0.57434310990765E-05 0.49427988119073E-05 0.29961974681264E-04 0.36767415075658E-04
 131        8XZ      -.42769271247692E-05 0.65021236044507E-05 -.10859110622501E-05 -.14369441345117E-04 -.33108024407464E-04
 132        8YZ      0.51130895999975E-05 -.21490025082956E-05 0.68897424641606E-05 -.22399159073501E-04 -.25503937063558E-04
 133 9   H  1S       0.17899352715544E-05 0.21085481875501E-04 0.24904946308333E-04 -.15149050413838E-03 -.16288982590106E-04
 134        2S       0.48889221301286E-04 -.27847708275859E-03 0.42766864872489E-04 -.69555179958411E-03 0.32870887416215E-02
 135        3PX      -.24749176726171E-05 -.22690988313210E-08 0.10800554588889E-06 -.64908792559446E-04 0.13980523991057E-03
 136        3PY      -.12381390908280E-04 -.17593953677254E-04 -.11298948354901E-04 -.24443762597998E-04 -.20664662425760E-03
 137        3PZ      0.68509748066124E-05 0.49644703372460E-05 0.80262888302631E-05 -.43028806241076E-05 -.55703775248591E-04
 138 10  H  1S       0.24521102412808E-04 -.54926774702519E-05 -.72749288608035E-05 -.15371933319887E-03 -.14994352812218E-03
 139        2S       -.95194926188451E-04 0.13653126859556E-03 -.66318504727554E-04 -.53072094068221E-03 0.31094185514189E-02
 140        3PX      0.24890206602578E-05 -.30058269145524E-05 -.45167271854290E-05 0.73368943547953E-05 -.79218785927747E-04
 141        3PY      0.22277166163855E-05 0.58299616441566E-06 -.69069494997186E-05 0.10732067264592E-04 0.25484878404264E-03
 142        3PZ      0.71654714732912E-05 -.22998238448728E-06 -.15596123408332E-06 0.19022544696006E-05 -.14892283529176E-03
 143 11  H  1S       -.24926925087171E-04 0.32409103437181E-04 0.13591149134696E-04 0.91038419303255E-04 -.15928633837066E-03
 144        2S       0.31030057661201E-03 -.14152160107671E-04 -.29860041622688E-04 -.76999627068048E-03 -.54159355681053E-03
 145        3PX      -.58732330794709E-06 -.14709717815999E-05 -.43154944144925E-05 0.80685787808969E-04 0.28835965268151E-04
 146        3PY      0.56784883992650E-05 -.33971163346521E-04 -.44865762719171E-05 0.21067874767184E-04 0.11448511769226E-04
 147        3PZ      -.73376237217832E-05 -.15691835344319E-04 0.47204847016586E-05 0.63377021600124E-04 0.26241912336284E-04
 148 12  H  1S       0.27804210015438E-05 0.32048693510169E-05 -.58038789490658E-05 -.42442718600063E-04 -.19594810444528E-03
 149        2S       -.67544307561578E-04 -.63862995697395E-04 -.65467248818344E-04 0.12759520714028E-03 -.40601784273110E-03
 150        3PX      0.25570434133363E-05 0.59416361705628E-05 0.33265998520116E-05 -.94128714187910E-05 0.32138654559473E-04
 151        3PY      0.11936684604170E-05 0.23645218103714E-05 0.10525988236767E-04 -.10769685826309E-04 -.86989182388698E-06
 152        3PZ      0.12479109685822E-06 0.21230507293850E-05 -.85970542009581E-07 -.36785382782831E-04 0.50466607920804E-04
 153 13  H  1S       -.49958245403330E-05 -.87258117444586E-06 0.21713550776005E-04 -.81316607853835E-04 -.10830683080570E-03
 154        2S       -.28023964504007E-05 -.40767678496818E-04 0.43007532125401E-04 0.14560425113152E-04 -.52032614392319E-03
 155        3PX      0.12679377196840E-05 0.21351610181599E-05 -.78380158178024E-05 0.28902520074980E-04 0.11634302729429E-04
 156        3PY      -.43942787662990E-06 0.24862062519343E-05 -.72778313199250E-05 0.19587710304687E-05 -.53897508769065E-04
 157        3PZ      0.53427073234126E-05 0.90515346493935E-06 -.33573449000611E-05 0.94583103935356E-05 -.15133688208087E-03
                           6         7         8         9        10
                           O         O         O         O         O
     Eigenvalues --  -.10306022210001E+02 -.12841817114465E+01 -.11033402337778E+01 -.94867786767606E+00 -.84949624199271E+00
   1 1   C  1S       0.26640352271759E-04 -.27426432146399E-01 -.98267170429285E-02 -.14961757376643E+00 0.39270757413711E-01
   2        2S       0.38034142370908E-04 0.51425859750501E-01 0.18420403657624E-01 0.28896404682829E+00 -.79716719228826E-01
   3        3S       -.12404899105747E-02 0.39678404147378E-02 0.66708581115483E-02 0.24479692392534E+00 -.73540228771669E-01
   4        4S       -.20465052700996E-01 0.12826979396800E-01 0.11564608843859E+00 0.14736007126054E+00 -.76388423382820E-01
   5        5PX      -.10610632345463E-03 -.54941236698682E-02 0.19243457974566E-01 0.42278588035157E-01 0.69843468057395E-01
   6        5PY      -.40059152425600E-04 -.33735150314860E-01 -.10030651681572E-01 -.31216022906300E-01 0.10885035033257E+00
   7        5PZ      -.65393903796736E-04 0.25675758833409E-01 0.48532054436217E-02 0.44628108199867E-01 -.41618222934063E-01
   8        6PX      -.14517974914824E-03 0.38584476813989E-03 0.10453674746422E-01 0.10069365284040E-01 0.10950033497219E-01
   9        6PY      0.17318189856909E-03 0.31780344093016E-02 0.65253298432696E-03 -.28057335852625E-02 0.10525106495359E-01
  10        6PZ      -.31685083382050E-03 -.64871520500476E-02 -.65039680833413E-02 0.95397067172452E-02 -.38797791101674E-02
  11        7PX      -.45702249864646E-02 -.11425181512478E-02 0.52602267160673E-02 0.17033901311457E-01 -.50039642601203E-02
  12        7PY      -.17981777752241E-02 -.11401121759918E-01 -.16530603553845E-02 -.23725521782851E-01 0.23952452072004E-01
  13        7PZ      -.18965015776763E-02 0.97209828995439E-02 0.20484597398925E-01 0.25646506411650E-01 -.11923028147935E-01
  14        8XX      -.40665509412776E-04 -.25143082851393E-02 -.11744520752336E-02 -.27710914943615E-02 0.95421970516516E-02
  15        8YY      -.67527296581319E-04 0.61125481954799E-02 0.19022850305520E-02 0.23681447857462E-03 -.51411158162747E-02
  16        8ZZ      0.13749394256110E-04 0.21062416716982E-02 -.46254503742755E-03 -.29348083835968E-02 -.33529917477427E-02
  17        8XY      0.60784592656135E-04 0.13604681789511E-02 -.36600795106455E-02 0.43494420158807E-02 0.42624222653380E-02
  18        8XZ      -.28402348861671E-04 -.11069760482397E-02 0.34442805609661E-02 -.38928047624573E-03 0.21161441089723E-02
  19        8YZ      -.27617122303358E-05 -.71989230246094E-02 -.13923125503952E-02 -.75057377955309E-02 0.91176920267960E-02
  20 2   C  1S       -.13539347972778E-02 -.41299336057461E-02 -.68132728828748E-02 -.99981791023608E-01 -.10400685757255E+00
  21        2S       -.41907581394069E-03 0.73202247877946E-02 0.11526446124883E-01 0.18815686844208E+00 0.19433506319264E+00
  22        3S       0.55050967566747E-02 0.80122531505587E-02 0.34428945443821E-02 0.14115988178476E+00 0.19119955753269E+00
  23        4S       0.25022414619927E-01 0.26677344658456E-01 -.80838237084918E-01 -.98083946346328E-01 0.87904415410097E-02
  24        5PX      -.21266158026560E-04 -.51372159312028E-02 -.42604371178451E-02 -.60326110950988E-01 0.23897067583937E-01
  25        5PY      0.40632598625852E-04 -.50975467617009E-02 -.61954864937891E-02 -.37484491922054E-01 0.32325085905912E-01
  26        5PZ      0.69112797756411E-04 0.10212803098653E-02 0.60143233134572E-03 0.98915243133941E-03 0.30742593435622E-01
  27        6PX      0.11418376016125E-02 -.37784828792538E-02 0.68803753725677E-03 -.77517819358278E-02 -.21279780649189E-02
  28        6PY      0.53270691410931E-03 -.35991859624134E-02 -.24149189265414E-02 -.13214080098968E-02 0.75756925908342E-02
  29        6PZ      0.22321207915872E-02 0.36031928997704E-02 0.74835415352606E-02 -.35443917781617E-02 0.48107180799672E-02
  30        7PX      -.38541526796249E-02 -.80646921363899E-02 0.17508383675036E-01 0.74085267479905E-02 -.21162238234682E-02
  31        7PY      -.28976077853724E-02 -.45103448906936E-02 0.10986896278515E-01 0.18506268996016E-01 -.12807154172306E-01
  32        7PZ      0.25026041943992E-02 0.37473713698442E-03 -.11777008418027E-01 -.18781268808240E-01 -.67083799142122E-02
  33        8XX      -.17532859296801E-03 0.84861995004802E-03 0.70724002661614E-04 0.30193954945042E-02 -.53956457433657E-02
  34        8YY      -.16092843936956E-03 0.88245082373988E-03 0.22300251160769E-03 -.25003911521410E-02 -.48745465452372E-02
  35        8ZZ      -.25386299696416E-03 -.21787870105655E-03 -.51599726354525E-03 -.26339910717273E-02 0.51339159354813E-02
  36        8XY      -.27726002121021E-04 0.12355386346125E-02 0.78256275246509E-03 0.69642177290448E-02 -.94719728450526E-03
  37        8XZ      -.84050232745984E-04 -.28020411086577E-03 0.41151029691525E-04 0.78543929850237E-03 0.22841885496683E-02
  38        8YZ      -.15732975352712E-04 -.30606605325823E-03 -.21638194770214E-03 0.93089975532891E-03 0.23829952111614E-02
  39 3   N  1S       -.44971134045100E-05 -.15416499747583E+00 -.31337516842717E-01 -.50151168372663E-01 0.65295427745086E-01
  40        2S       0.81105831728131E-05 0.33150347949470E+00 0.68592457507731E-01 0.11114178472916E+00 -.15027460542681E+00
  41        3S       -.43693799017720E-04 0.25616712147869E+00 0.74169127994876E-01 0.14921936753163E+00 -.20277767433332E+00
  42        4S       0.54951488892594E-02 0.14969359593674E+00 -.16920175970966E-01 -.23994873388207E+00 0.17287694632297E+00
  43        5S       0.74421505933029E-04 -.22859949939008E-01 -.12350663241184E-01 -.39925314324066E-02 0.36681806522136E-02
  44        6S       0.30427971274129E-04 0.46332225845513E-02 0.16408089669947E-02 0.59993645551107E-03 -.99968809841410E-03
  45        7PX      -.22212976107537E-04 -.85754875481164E-01 0.25260475264530E+00 0.27022830026923E-01 -.19250066867693E-01
  46        7PY      -.57529796757841E-04 -.62043839018526E-01 -.49894252447040E-01 0.18132506587701E+00 -.12282439037410E+00
  47        7PZ      -.34258945847419E-04 0.21129565571518E-01 -.14701210823665E-01 -.10964427107094E+00 0.93045986505919E-01
  48        8PX      0.59969232727524E-03 -.13032748459446E-01 0.47676347500245E-01 0.20479400830436E-02 -.19336675654160E-02
  49        8PY      0.12899594704856E-03 0.15639568832990E-01 -.47796372816451E-02 0.56975806765235E-01 -.47419475801668E-01
  50        8PZ      -.52218227399074E-04 -.10699065616448E-01 -.63610439907976E-02 -.36755480718807E-01 0.41319909320572E-01
  51        9PX      0.17842762213060E-02 -.66658612469941E-01 0.14760033134918E+00 -.94738439381418E-02 -.10460157719976E-01
  52        9PY      0.16352233092483E-02 -.68160893637269E-01 -.49740882926499E-01 -.58150137143488E-02 -.85621379007207E-03
  53        9PZ      -.59863609544262E-03 0.34623247067896E-01 0.31018769476438E-02 0.20995816539080E-01 -.11546897885245E-01
  54       10PX      -.21071222353901E-03 0.33593907920517E-02 -.97000523590174E-02 0.17476981514398E-02 0.24622188416219E-03
  55       10PY      0.11523884553025E-03 0.37986609936396E-02 -.89244294193063E-04 -.11964954427443E-02 0.35733477977634E-03
  56       10PZ      0.24144148880042E-03 -.18403624209768E-02 0.98448683356654E-03 -.59058626033036E-03 -.62122898513159E-03
  57       11PX      0.82196686625812E-04 -.88331596976630E-03 0.20420502813349E-02 -.52456880455997E-03 -.16254627606396E-03
  58       11PY      0.19725723082610E-04 -.82242160773513E-03 -.38016634301362E-03 0.20644369887681E-03 -.34049881589352E-03
  59       11PZ      -.46847076899318E-04 0.32333781064438E-03 -.17202969316519E-03 0.34820253694411E-03 0.19621426284385E-03
  60       12XX      -.51768394124270E-04 0.13891716775578E-01 -.64107215792617E-02 -.11996827246208E-01 0.10174718759666E-01
  61       12YY      -.11142837714901E-04 -.83455976208911E-02 0.81984930412477E-02 0.34249687897724E-02 0.85019874412214E-03
  62       12ZZ      -.16851733156532E-04 -.14598095307699E-01 -.15861143568464E-02 0.32579229274693E-02 -.69536819634686E-03
  63       12XY      -.75526216798123E-04 0.30090204857023E-02 -.23357639486257E-01 0.15703180845039E-02 0.30475707782207E-02
  64       12XZ      0.22070452599669E-04 -.46972401567598E-02 0.73029390388609E-02 0.65143200795190E-03 -.20965610587344E-02
  65       12YZ      -.26522495197784E-04 -.52612934150747E-02 -.15421809861134E-02 -.78162266452714E-02 0.47350806067180E-02
  66 4   H  1S       0.32450878557499E-04 0.11078291796270E-01 -.19743816650504E-02 0.67186585831527E-01 -.27698069480686E-01
  67        2S       0.98482309294602E-06 0.87979704242380E-02 0.78445414660297E-02 0.12455443406454E-01 -.96947730853276E-02
  68        3PX      -.13020391075274E-04 0.10769535504233E-02 0.70651545064496E-03 0.64809685789175E-02 -.15180723804142E-02
  69        3PY      -.26958409089715E-04 -.12569052091654E-02 0.22992251053834E-03 -.30499449974260E-02 0.21989294713721E-02
  70        3PZ      -.26170198341132E-04 0.86328388651497E-04 -.24891251134219E-03 -.15703643193319E-02 0.42692296238506E-03
  71 5   H  1S       0.70487130431376E-05 0.85892386522243E-02 0.40338900230931E-02 0.70650364945786E-01 -.27862040340658E-01
  72        2S       -.42500851745800E-05 0.53291347469663E-02 -.19212184886353E-02 0.20324642821927E-01 -.14166554275898E-01
  73        3PX      0.18610484624031E-04 0.66068111476989E-04 0.44725781018535E-04 0.10063899211915E-02 0.58486865394164E-03
  74        3PY      0.23757957267037E-04 0.11031748183694E-03 -.29092280455451E-04 0.29942375478738E-02 0.21383982139783E-03
  75        3PZ      0.14859944545889E-04 0.15837899097342E-02 0.49458870613175E-03 0.70099077686049E-02 -.29344358768177E-02
  76 6   O  1S       0.45755211744037E-05 -.13871731278808E+00 0.11893380488017E+00 0.54487495310394E-01 -.56942970678295E-01
  77        2S       0.43600464798801E-05 0.30051612930538E+00 -.26061127235949E+00 -.12225921469516E+00 0.12865399585036E+00
  78        3S       0.11522065000851E-03 0.28723521704744E+00 -.29184249566479E+00 -.15638562093402E+00 0.17749189894240E+00
  79        4S       0.10343334818526E-02 -.20589601490002E+00 0.18556270508967E+00 0.65214517533776E-01 -.65898286106523E-01
  80        5PX      0.11701053437372E-04 0.13365377177566E+00 -.59540147194326E-01 -.16162476070760E-01 -.18471536149344E-01
  81        5PY      0.21618152086893E-04 0.45189301471196E-01 -.39115768512313E-01 0.26720379115261E-01 -.34865541433336E-01
  82        5PZ      0.17603602439858E-04 -.31710638742493E-01 0.20020315023760E-01 -.16250266397147E-01 0.26597144173233E-01
  83        6PX      0.20276357431788E-03 0.51299743297751E-01 -.27004969688042E-01 -.16388299195472E-01 0.12757458081558E-02
  84        6PY      -.95220080567147E-05 0.14754001521042E-01 -.22488202195658E-01 0.72551028169270E-02 -.11795710706336E-01
  85        6PZ      -.13773069588504E-03 -.11274928001958E-01 0.11416752754093E-01 -.30803327053267E-02 0.82579085429268E-02
  86        7PX      0.14600430070501E-03 -.54988909986152E-01 0.39288217574653E-01 0.20741908713938E-01 -.17628531192207E-01
  87        7PY      -.35446227287913E-04 -.11739151501944E-01 0.29216422299089E-01 0.53284286747378E-02 -.56225449860715E-02
  88        7PZ      0.18944865073225E-03 0.96064208592321E-02 -.14330340607927E-01 -.72942090440820E-02 0.49403782435842E-02
  89        8XX      0.69206062389000E-04 0.14457020729343E-01 0.18329793820095E-02 -.18839505375729E-02 -.23538520396413E-02
  90        8YY      0.83397862340965E-05 -.94705071494109E-02 0.50925759153484E-02 0.51391670630542E-02 -.39230804781156E-02
  91        8ZZ      0.37416850182931E-05 -.86645058077783E-02 0.63269289303256E-02 0.28212623637971E-02 -.20235320943411E-02
  92        8XY      0.39340599934702E-05 0.98788875153279E-02 -.75368124446837E-02 0.29871070947630E-02 -.39240639611803E-02
  93        8XZ      -.26112346735936E-04 -.65230763312559E-02 0.31128558242645E-02 -.17783874652941E-02 0.30292357665341E-02
  94        8YZ      -.14023301519344E-04 -.89333306099071E-03 0.12072797904246E-02 -.24320536824481E-02 0.27964668540589E-02
  95 7   O  1S       0.10627340304173E-05 -.71797774117518E-01 -.17158153947010E+00 0.62445097892665E-01 -.42604661440480E-01
  96        2S       0.12438839242228E-04 0.15477309284864E+00 0.37650741635552E+00 -.13940603509512E+00 0.95629098012920E-01
  97        3S       0.73528725777882E-04 0.14797618398489E+00 0.41019419746112E+00 -.17105432465541E+00 0.12899067798444E+00
  98        4S       -.30403681321386E-02 -.58094190793158E-01 -.22394323287875E+00 0.82595582648988E-01 -.40853361653612E-01
  99        5PX      -.17620611231777E-04 -.62316902475723E-01 -.76814734025349E-01 0.19787019146095E-01 0.10636576416683E-01
 100        5PY      0.33578835103780E-04 0.43920984741578E-01 0.76497486077917E-01 0.11362897578687E-01 -.23590454405691E-01
 101        5PZ      -.20129705158545E-04 -.85869758023598E-02 -.18029411833411E-01 -.11975989279069E-01 0.16213351951734E-01
 102        6PX      0.19065789970071E-03 -.31718638572237E-01 -.38613111149822E-01 0.15822856121650E-01 -.18577915597334E-02
 103        6PY      -.29620322640290E-03 0.19754845598818E-01 0.41011093145833E-01 -.13678275501953E-02 -.44607764038828E-02
 104        6PZ      0.10715101835479E-03 -.25111082914800E-02 -.99789258538245E-02 -.23048518483837E-02 0.47652601744501E-02
 105        7PX      -.10733432765273E-03 0.28558592090159E-01 0.46522214799700E-01 -.17851373702448E-01 0.11415312775094E-01
 106        7PY      -.13660133228303E-02 -.59174551250776E-02 -.50115653530862E-01 0.20093941460612E-01 -.84400220021505E-02
 107        7PZ      0.12604531434598E-03 -.24772143594867E-02 0.11352951369956E-01 -.78798580856051E-02 0.39410227645616E-02
 108        8XX      0.31335546601329E-04 0.83144079497406E-02 -.82416614670264E-03 -.19000976353134E-02 -.41379634671756E-03
 109        8YY      -.77263105282339E-04 0.30528697463349E-03 -.27532836932875E-03 0.50479363087567E-02 -.37581217571289E-02
 110        8ZZ      0.36272466437135E-04 -.54132808944513E-02 -.10041360350538E-01 0.32432961078199E-02 -.15589152140160E-02
 111        8XY      0.29150310232308E-04 -.12013197257274E-01 -.14463589762560E-01 0.16105745051461E-02 0.18077149586893E-02
 112        8XZ      -.18551027337274E-05 0.22791530062691E-02 0.36921351147679E-02 0.72602541599060E-03 -.13890525719494E-02
 113        8YZ      0.12026505274801E-04 -.63675078578635E-03 -.15405685922223E-02 -.18991224376537E-02 0.19591019246817E-02
 114 8   C  1S       0.99340089332638E+00 -.10812263348237E-02 -.23009795779327E-02 -.43388956284733E-01 -.14030334845850E+00
 115        2S       0.47905909743638E-01 0.95031387354770E-03 0.45839975508666E-02 0.77472451590338E-01 0.26077347907208E+00
 116        3S       -.20681849088887E-01 0.98750409070047E-03 -.58067401823230E-02 0.69499627114658E-01 0.24151380096977E+00
 117        4S       -.71077019599281E-02 -.36168148430756E-02 0.13856558774492E-01 0.36220734800616E-01 0.21584639911676E-01
 118        5PX      -.39303026823252E-03 -.57667922554838E-03 -.80645269348885E-03 -.19382063361018E-01 -.29211065110324E-01
 119        5PY      0.18856046784108E-03 -.67534445869789E-03 -.15582558868771E-02 -.59723517881438E-02 0.14589872261567E-01
 120        5PZ      -.87887345673834E-04 -.34389277158625E-03 -.79821441227480E-03 -.22698306325236E-01 -.21369075668656E-01
 121        6PX      0.20152253991863E-02 -.17910119659730E-02 -.13715586712251E-02 -.93024195064366E-02 -.11737943540372E-01
 122        6PY      -.51040622029077E-05 -.29124650705824E-02 -.81634450001496E-03 -.61944633580785E-02 0.47531682434358E-02
 123        6PZ      0.17482707159574E-02 -.18838077432301E-02 -.81359781902869E-04 -.55901735095732E-02 -.73259269968112E-02
 124        7PX      0.85944292709593E-03 0.19397771074510E-02 -.10349953097466E-02 -.34701405123864E-02 -.20359481503874E-02
 125        7PY      0.49812155075687E-03 0.56220100449599E-03 -.61626877365616E-03 -.70506271837924E-02 0.36228653258677E-02
 126        7PZ      0.13294145926660E-02 0.67733172015685E-03 -.24759258220573E-02 -.72734861072374E-02 -.37093047801060E-02
 127        8XX      -.76394348983573E-02 -.12207532314562E-03 -.16621592877454E-03 -.79112671000968E-03 -.37871800577414E-02
 128        8YY      -.75735880858361E-02 0.70604239997304E-04 0.10625064442732E-03 -.16501507055201E-02 -.43995274691062E-02
 129        8ZZ      -.81695572670080E-02 -.84206966036975E-04 0.35229912172556E-04 0.19269903504141E-02 -.85322590154010E-03
 130        8XY      0.29787760984630E-04 0.29425209205961E-03 0.12380940835693E-03 0.10051943337040E-02 0.42176071813260E-03
 131        8XZ      -.16363114503775E-03 0.15029752664388E-03 0.20776589272265E-03 0.25616499951010E-02 0.18389319858204E-02
 132        8YZ      -.18852877028374E-03 0.13053044055875E-03 0.55629938609548E-04 0.16604340863352E-02 0.61668982452100E-03
 133 9   H  1S       -.13209758239510E-03 0.10163975897350E-02 0.38197522283783E-02 0.47796130322459E-01 0.58206795982220E-01
 134        2S       -.15291333175104E-02 0.66934050639880E-02 -.46086587449664E-03 0.11675084106255E-01 0.12440242926069E-01
 135        3PX      -.18356001367336E-05 -.44182765481968E-03 -.51563173352699E-03 -.42564281333581E-02 -.32757444472010E-02
 136        3PY      -.40729701672024E-04 -.16729812408384E-03 0.27238028609874E-04 0.22464794340008E-02 0.36811333616132E-02
 137        3PZ      -.11038540321414E-03 0.32281020786247E-03 0.24519301787570E-03 0.23923365761926E-02 0.27465502545026E-02
 138 10  H  1S       -.16709737076914E-03 0.10088947829544E-02 0.19580983539834E-02 0.48783895960427E-01 0.69735638102717E-01
 139        2S       -.71558868290473E-03 0.62650237194078E-03 0.42835040329858E-02 0.43478071357640E-02 0.17699051446501E-01
 140        3PX      -.39874609330759E-04 0.12723674747844E-03 0.79433351966166E-04 -.33330525729328E-03 0.57797392746870E-03
 141        3PY      -.22681682251693E-04 0.32763878757712E-04 -.37773303553203E-03 -.42404467111755E-02 -.47270595117839E-02
 142        3PZ      -.60269410162623E-04 -.13602900045413E-04 0.10072773173172E-03 0.28879998751630E-02 0.39917724897888E-02
 143 11  H  1S       -.19235798416508E-03 0.90113802953478E-03 0.28624514770089E-02 0.22235645698605E-01 0.81124305386618E-01
 144        2S       0.31632909044116E-02 0.39473517695638E-02 0.20580496855394E-02 0.12531284674573E-02 0.17673952191793E-01
 145        3PX      -.19719810118750E-04 -.28102340971940E-03 -.34155956788472E-03 -.67805104780169E-03 -.11631255445758E-02
 146        3PY      -.21586087442218E-03 -.30052508957836E-03 -.49201474405092E-03 0.18035208529832E-02 0.68206384171771E-02
 147        3PZ      0.73993544502197E-04 -.29250744810830E-03 -.52147655677156E-03 -.14835505927531E-02 -.42325139492859E-02
 148 12  H  1S       -.31181300646600E-03 0.27951333331841E-03 0.98959545334852E-03 0.21149825025700E-01 0.94417875832577E-01
 149        2S       0.33755388797904E-02 0.20290836419170E-02 0.24107884753719E-02 0.52542178545853E-02 0.20856333637025E-01
 150        3PX      0.13041330339442E-03 -.36442026587840E-04 -.11027527978581E-03 -.16373774561783E-02 -.64079891024495E-02
 151        3PY      0.17539059657483E-03 -.18549402531245E-04 -.14729230732822E-03 -.14635563306685E-02 -.57879689111269E-02
 152        3PZ      -.77961690530106E-04 0.48891377908688E-04 0.27022748612421E-04 -.13397930337452E-03 -.10024342686741E-03
 153 13  H  1S       -.15416479925833E-03 0.35193733343105E-03 0.11941861359336E-02 0.32241903659339E-01 0.11203659889531E+00
 154        2S       0.48778348385987E-02 0.23226333943216E-02 0.15829882978840E-02 0.37877966938720E-02 0.17108839441507E-01
 155        3PX      -.15612725424101E-03 0.16890977777068E-03 0.21854712135761E-03 0.19909967090996E-02 0.78594191308450E-02
 156        3PY      0.43503724707556E-04 -.13138270458849E-03 -.58786468962834E-04 -.15937227584047E-02 -.38221415781602E-02
 157        3PZ      0.12749441933510E-05 -.37531949311537E-04 -.48033301613245E-04 -.14843802221453E-02 -.33587704783210E-02
                          11        12        13        14        15
                           O         O         O         O         O
     Eigenvalues --  -.77618002654459E+00 -.69290044900184E+00 -.62145212941645E+00 -.61522260389138E+00 -.59578089789067E+00
   1 1   C  1S       0.49702283745267E-01 0.81434354128589E-01 0.57533944529782E-02 0.32469836451735E-01 0.53321948821800E-01
   2        2S       -.96732093088433E-01 -.16055850118322E+00 -.87770974926287E-02 -.62909765522330E-01 -.10898928697243E+00
   3        3S       -.11130740336337E+00 -.22498209561715E+00 -.25785020004661E-01 -.10550009264342E+00 -.17612301814331E+00
   4        4S       0.11664281088834E+00 0.14075276523950E+00 0.99300950934447E-01 -.51584567745122E-01 -.53359599689255E-01
   5        5PX      -.81956325834255E-01 0.12661952843175E+00 0.56067934779546E-02 0.15219851344333E+00 -.47770046328300E-01
   6        5PY      -.11367594792744E+00 0.91781285954570E-02 0.12667468426137E+00 -.16056371571694E+00 -.14739713234191E+00
   7        5PZ      0.94118528807420E-01 0.32389141246117E-01 0.21699572273031E+00 0.70674336490746E-01 0.10589190007681E+00
   8        6PX      -.16668992489358E-01 0.45348372188049E-01 -.29992805512644E-02 0.64471409188825E-01 -.18110349742903E-01
   9        6PY      -.11648079308491E-01 0.11960023367985E-01 0.67282288432692E-01 -.64308057079898E-01 -.52857477168468E-01
  10        6PZ      0.25546488719046E-01 0.69565728668764E-02 0.10181099865778E+00 0.17811200925322E-01 0.30178731196812E-01
  11        7PX      0.20144608141845E-01 0.44099107218256E-01 0.30131019424698E-01 0.12455839018631E-01 -.41605018536721E-01
[...]
  99        5PX      0.74071144690278E-01 0.53553820659789E-02
 100        5PY      -.74676953301928E-01 0.71318360869011E-02
 101        5PZ      0.88388697401843E-02 -.25995549177679E-03
 102        6PX      -.25192576904520E+00 -.79605347624376E-01
 103        6PY      0.49848599417521E+00 0.45059229565207E-01
 104        6PZ      -.12509011135866E+00 0.19385498861161E-02
 105        7PX      0.97156993623758E+00 0.17143000769167E+00
 106        7PY      -.14393976510475E+01 -.40019036872667E+00
 107        7PZ      0.32337319924514E+00 0.81681185066841E-01
 108        8XX      -.12819739607675E+01 -.43944252717927E-01
 109        8YY      -.12099388292830E+01 -.94500929328449E-01
 110        8ZZ      -.12937119097149E+01 -.97415029111610E-01
 111        8XY      -.47152711468631E-01 -.48663903882290E-01
 112        8XZ      0.28947664738509E-01 -.97440209611797E-02
 113        8YZ      -.22535518384068E-01 -.12250307031452E-01
 114 8   C  1S       0.82448245626006E-01 0.25687932445552E+00
 115        2S       -.34994236604743E+00 -.12283460294508E+01
 116        3S       -.87694492871707E+00 -.21474781682025E+01
 117        4S       0.92022779855363E+00 -.44212813404081E+00
 118        5PX      -.59589062079790E-02 -.31535794752885E-01
 119        5PY      0.17413707035043E-01 0.61835833397519E-01
 120        5PZ      0.48083142914471E-01 0.66664154532499E-01
 121        6PX      -.14104133650277E-01 0.21747986404944E+00
 122        6PY      -.38160485756808E-01 0.73905685200519E-01
 123        6PZ      0.10922786232928E+00 0.37175696910392E+00
 124        7PX      -.14515721415344E+00 0.55519975163721E-01
 125        7PY      -.98901145102142E-01 0.19554205589836E-01
 126        7PZ      -.22887901844800E+00 0.83227161267750E-01
 127        8XX      0.31377072926191E+00 0.10564170421245E+01
 128        8YY      0.32392426292475E+00 0.10269814812955E+01
 129        8ZZ      0.29406957905413E+00 0.96583034569352E+00
 130        8XY      -.28480982792317E-01 0.16751736052565E-01
 131        8XZ      -.18715356822827E-02 -.41967901915931E-02
 132        8YZ      -.43178593573079E-01 -.35679769422474E-01
 133 9   H  1S       0.30703448251234E-01 0.78473070014499E-01
 134        2S       -.17086280711465E+00 -.42994958623626E+00
 135        3PX      0.44112948757976E-02 -.15694768937691E+00
 136        3PY      0.35846225773511E-01 0.11605434377697E+00
 137        3PZ      -.19353524623820E-01 0.53439356400532E-01
 138 10  H  1S       0.98727074900759E-02 0.11658703064835E+00
 139        2S       0.18064814783869E+00 -.32014429612180E+00
 140        3PX      0.15562991168528E-01 0.18688536594037E-01
 141        3PY      -.24829255138280E-01 -.19106515433690E+00
 142        3PZ      -.11786087446191E-01 0.10591829890336E+00
 143 11  H  1S       -.40214291451429E-01 -.70805551996699E-01
 144        2S       0.54482667705968E-01 0.20773171546481E+00
 145        3PX      -.24253033330862E-01 0.26664803522714E-01
 146        3PY      -.10025438760881E+00 -.12629585917145E+00
 147        3PZ      0.28417239000271E-02 0.84432212411156E-01
 148 12  H  1S       -.22797149489369E-02 -.11910010454509E+00
 149        2S       0.20115502590749E+00 0.30724269577873E+00
 150        3PX      0.14392874955917E-01 0.10303381136093E+00
 151        3PY      0.12152722799151E-01 0.11507798016607E+00
 152        3PZ      -.76518909410197E-03 -.21622184410231E-01
 153 13  H  1S       -.56627984619842E-01 -.15474628632917E+00
 154        2S       0.14058394402038E+00 0.40324619731947E+00
 155        3PX      -.43288096879818E-01 -.12103871596383E+00
 156        3PY      0.37589208859342E-01 0.79926256317873E-01
 157        3PZ      0.23023377740595E-01 0.92885229134649E-01
          Condensed to atoms (all electrons):
              1          2          3          4          5          6
     1  C    5.746872  -0.071544   0.095661   0.404180   0.360002  -0.127033
     2  C   -0.071544   5.543419  -0.061042  -0.043982  -0.012998   0.043431
     3  N    0.095661  -0.061042   6.407475  -0.037707  -0.027451   0.352161
     4  H    0.404180  -0.043982  -0.037707   0.502157  -0.017601  -0.000821
     5  H    0.360002  -0.012998  -0.027451  -0.017601   0.503428  -0.007994
     6  O   -0.127033   0.043431   0.352161  -0.000821  -0.007994   7.806260
     7  O   -0.071376   0.040046   0.380641  -0.000096   0.000041  -0.078045
     8  C   -0.003991   0.215025  -0.001583  -0.003617   0.004858  -0.003605
     9  H   -0.025818   0.371347  -0.004760   0.003306  -0.006427  -0.000316
    10  H   -0.028589   0.369927   0.006297  -0.003873  -0.000427  -0.000282
    11  H   -0.006873  -0.035669   0.007856  -0.000122  -0.000036  -0.000163
    12  H    0.015846  -0.036814  -0.003095  -0.000005  -0.000064   0.000117
    13  H   -0.006737  -0.072460   0.004839   0.002014   0.000013  -0.000723
              7          8          9         10         11         12
     1  C   -0.071376  -0.003991  -0.025818  -0.028589  -0.006873   0.015846
     2  C    0.040046   0.215025   0.371347   0.369927  -0.035669  -0.036814
     3  N    0.380641  -0.001583  -0.004760   0.006297   0.007856  -0.003095
     4  H   -0.000096  -0.003617   0.003306  -0.003873  -0.000122  -0.000005
     5  H    0.000041   0.004858  -0.006427  -0.000427  -0.000036  -0.000064
     6  O   -0.078045  -0.003605  -0.000316  -0.000282  -0.000163   0.000117
     7  O    7.882649  -0.016624  -0.003302   0.000828   0.002165   0.000393
     8  C   -0.016624   5.120896  -0.009049  -0.015388   0.410324   0.403449
     9  H   -0.003302  -0.009049   0.533244  -0.036538  -0.002682  -0.001147
    10  H    0.000828  -0.015388  -0.036538   0.541515   0.002079  -0.001592
    11  H    0.002165   0.410324  -0.002682   0.002079   0.470528  -0.011165
    12  H    0.000393   0.403449  -0.001147  -0.001592  -0.011165   0.492190
    13  H   -0.001758   0.420105   0.004066  -0.002755  -0.033052  -0.033321
             13
     1  C   -0.006737
     2  C   -0.072460
     3  N    0.004839
     4  H    0.002014
     5  H    0.000013
     6  O   -0.000723
     7  O   -0.001758
     8  C    0.420105
     9  H    0.004066
    10  H   -0.002755
    11  H   -0.033052
    12  H   -0.033321
    13  H    0.551558
 Mulliken atomic charges:
              1
     1  C   -0.280601
     2  C   -0.248687
     3  N   -0.119291
     4  H    0.196166
     5  H    0.204656
     6  O    0.017014
     7  O   -0.135563
     8  C   -0.520800
     9  H    0.178076
    10  H    0.168799
    11  H    0.196809
    12  H    0.175210
    13  H    0.168211
 Sum of Mulliken atomic charges =  -0.00000
 Mulliken charges with hydrogens summed into heavy atoms:
              1
     1  C    0.120222
     2  C    0.098189
     3  N   -0.119291
     6  O    0.017014
     7  O   -0.135563
     8  C    0.019430
 Sum of Mulliken charges with hydrogens summed into heavy atoms =  -0.00000
 Electronic spatial extent (au):  <R**2>=           4669.6637
 Charge=             -0.0000 electrons
 Dipole moment (field-independent basis, Debye):
    X=              0.3627    Y=              4.0008    Z=             -2.0631  Tot=              4.5160
 Quadrupole moment (field-independent basis, Debye-Ang):
   XX=            -43.0962   YY=            -39.9248   ZZ=            -40.9090
   XY=            -18.6250   XZ=             11.1516   YZ=              7.7456
 Traceless Quadrupole moment (field-independent basis, Debye-Ang):
   XX=             -1.7862   YY=              1.3852   ZZ=              0.4010
   XY=            -18.6250   XZ=             11.1516   YZ=              7.7456
 Octapole moment (field-independent basis, Debye-Ang**2):
  XXX=            568.3788  YYY=             -0.3064  ZZZ=           -185.5596  XYY=            183.6164
  XXY=             89.4043  XXZ=           -124.7206  XZZ=            190.1244  YZZ=             10.7735
  YYZ=            -67.6271  XYZ=            -37.1801
 Hexadecapole moment (field-independent basis, Debye-Ang**3):
 XXXX=          -5426.6502 YYYY=           -383.3247 ZZZZ=           -737.0647 XXXY=           -532.0590
 XXXZ=           1200.7524 YYYX=            -78.2494 YYYZ=             16.9809 ZZZX=            842.1254
 ZZZY=             20.4960 XXYY=           -952.5004 XXZZ=          -1065.2694 YYZZ=           -202.9756
 XXYZ=            189.4290 YYXZ=            309.7994 ZZXY=            -82.4039
 N-N= 2.407744480277D+02 E-N=-1.236358516571D+03  KE= 3.198820078385D+02
 Orbital energies and kinetic energies (alpha):
                                 1                 2
   1         O       -.19342247981009E+02 0.29037052200419E+02
   2         O       -.19321539967914E+02 0.29040820602043E+02
   3         O       -.14700797444842E+02 0.21983358513571E+02
   4         O       -.10401947544543E+02 0.15908196130612E+02
   5         O       -.10342348793620E+02 0.15905348708414E+02
   6         O       -.10306022210001E+02 0.15898284143600E+02
   7         O       -.12841817114465E+01 0.24449788367777E+01
   8         O       -.11033402337778E+01 0.27801169793503E+01
   9         O       -.94867786767606E+00 0.16791511926910E+01
  10         O       -.84949624199271E+00 0.16241779143656E+01
  11         O       -.77618002654459E+00 0.17174103592291E+01
  12         O       -.69290044900184E+00 0.20515973478228E+01
  13         O       -.62145212941645E+00 0.14383141918253E+01
  14         O       -.61522260389138E+00 0.19527329466751E+01
  15         O       -.59578089789067E+00 0.19097801071502E+01
  16         O       -.55010008616738E+00 0.12258914169387E+01
  17         O       -.53768748606153E+00 0.13337162771221E+01
  18         O       -.50317317371158E+00 0.12019129163458E+01
  19         O       -.48509458019343E+00 0.12154824929976E+01
  20         O       -.45177905865790E+00 0.11996399411419E+01
  21         O       -.42681556155312E+00 0.11993068107340E+01
  22         O       -.40414944140711E+00 0.23070787882038E+01
  23         O       -.39173234862988E+00 0.23771209976325E+01
  24         O       -.38026793801985E+00 0.25095341035645E+01
  25         V       -.51716204593428E-01 0.24357178301908E+01
  26         V       0.73847423520570E-02 0.36315727056075E-01
  27         V       0.13544336747927E-01 0.21360066186970E-01
  28         V       0.14356890874847E-01 0.16714058123222E-01
  29         V       0.17177154435158E-01 0.16068431763715E-01
  30         V       0.46122522714714E-01 0.24466576287520E+00
  31         V       0.62475950785894E-01 0.18996625150401E+00
  32         V       0.67201540415344E-01 0.16218362272706E+00
  33         V       0.72666192614132E-01 0.15577579772253E+00
  34         V       0.93386318026004E-01 0.34094066438720E+00
  35         V       0.98376876410078E-01 0.36793045097778E+00
  36         V       0.10904912096649E+00 0.36261005939816E+00
  37         V       0.11851785983170E+00 0.30044506877094E+00
  38         V       0.12365014208696E+00 0.44917471773740E+00
  39         V       0.13594184101082E+00 0.52328729659551E+00
  40         V       0.14488438596815E+00 0.91821860645672E+00
  41         V       0.15627686714562E+00 0.31917453440896E+00
  42         V       0.16197029746411E+00 0.46840582566790E+00
  43         V       0.16514849475812E+00 0.54476873707107E+00
  44         V       0.17625326662292E+00 0.13032247148211E+01
  45         V       0.18440961483038E+00 0.57048371939757E+00
  46         V       0.20114600507045E+00 0.56569086242525E+00
  47         V       0.21892248920848E+00 0.86307204137664E+00
  48         V       0.22511496225609E+00 0.71581019434096E+00
  49         V       0.22744556720741E+00 0.13981998958654E+01
  50         V       0.23610606768050E+00 0.11605819062782E+01
  51         V       0.25914939112977E+00 0.71856606293645E+00
  52         V       0.26354578457890E+00 0.89948678019714E+00
  53         V       0.28457550962475E+00 0.10475842852984E+01
  54         V       0.29513662845435E+00 0.11268941181009E+01
  55         V       0.30968476281893E+00 0.12617598549822E+01
  56         V       0.31360127117390E+00 0.12663512128567E+01
  57         V       0.33232200872299E+00 0.10622692802546E+01
  58         V       0.34537352769692E+00 0.99019411134634E+00
  59         V       0.34878239267842E+00 0.13057876798459E+01
  60         V       0.36063223303810E+00 0.10788655000123E+01
  61         V       0.36856730806257E+00 0.77357847629598E+00
  62         V       0.37904997602837E+00 0.95711452597819E+00
  63         V       0.38487335042911E+00 0.16745708956034E+01
  64         V       0.39552727643778E+00 0.97671349439505E+00
  65         V       0.40273009670845E+00 0.12080943111338E+01
  66         V       0.41905461710853E+00 0.15486848002108E+01
  67         V       0.47295323901812E+00 0.10844697756711E+01
  68         V       0.48287021345114E+00 0.10740964389424E+01
  69         V       0.54659276118546E+00 0.12643360994054E+01
  70         V       0.68527897345943E+00 0.21825139451230E+01
  71         V       0.69489272115757E+00 0.18563438155119E+01
  72         V       0.72796902264141E+00 0.21514832232033E+01
  73         V       0.75419090713403E+00 0.19195530814070E+01
  74         V       0.76840551635856E+00 0.19936088692563E+01
  75         V       0.77151734060678E+00 0.20995230341278E+01
  76         V       0.79825830693854E+00 0.24733172816579E+01
  77         V       0.84583664356506E+00 0.23146592713686E+01
  78         V       0.90908647398571E+00 0.24397877957380E+01
  79         V       0.95155860941111E+00 0.24306771694420E+01
  80         V       0.97081102837415E+00 0.24305753387437E+01
  81         V       0.10204772066569E+01 0.25665776655364E+01
  82         V       0.10308457475588E+01 0.22192917710473E+01
  83         V       0.10676514306485E+01 0.23831311708765E+01
  84         V       0.10815711789956E+01 0.23849713829540E+01
  85         V       0.11028385651201E+01 0.24350170548605E+01
  86         V       0.11329660671984E+01 0.24338667623930E+01
  87         V       0.11787861114518E+01 0.24730607657600E+01
  88         V       0.11992796492777E+01 0.28413728189178E+01
  89         V       0.12304370382564E+01 0.28710120314833E+01
  90         V       0.12508788932964E+01 0.31990347511539E+01
  91         V       0.12878556881461E+01 0.29302181778173E+01
  92         V       0.13060462114408E+01 0.32066510300575E+01
  93         V       0.13379589247769E+01 0.27197557596814E+01
  94         V       0.13434345342825E+01 0.31671629448783E+01
  95         V       0.13685277416951E+01 0.35152324958170E+01
  96         V       0.13943899361070E+01 0.27692149585968E+01
  97         V       0.14339686529195E+01 0.27016645458909E+01
  98         V       0.14449459793841E+01 0.25718191791418E+01
  99         V       0.14819923002601E+01 0.25994743983151E+01
 100         V       0.15031553995664E+01 0.25146471093459E+01
 101         V       0.15716298023798E+01 0.25704312733263E+01
 102         V       0.16684836899077E+01 0.26515699317695E+01
 103         V       0.17092606217708E+01 0.27982597701187E+01
 104         V       0.17544887718524E+01 0.28667013374828E+01
 105         V       0.17832817945715E+01 0.28929056820477E+01
 106         V       0.18048477123216E+01 0.29506465766042E+01
 107         V       0.18384176404475E+01 0.31035302788574E+01
 108         V       0.18746529362357E+01 0.30032036089219E+01
 109         V       0.18967213282031E+01 0.28806628658796E+01
 110         V       0.19097108466009E+01 0.30980648331222E+01
 111         V       0.19243689831920E+01 0.30705220602801E+01
 112         V       0.19531642619653E+01 0.30670811648178E+01
 113         V       0.19827500855425E+01 0.30845186518684E+01
 114         V       0.19970096013225E+01 0.31801988714809E+01
 115         V       0.20282795320112E+01 0.31717793881943E+01
 116         V       0.20429843580516E+01 0.30092588512897E+01
 117         V       0.20751981666553E+01 0.34686197529159E+01
 118         V       0.20887295055129E+01 0.31908953813090E+01
 119         V       0.21710692690667E+01 0.33489284382045E+01
 120         V       0.22144598439872E+01 0.33585290340551E+01
 121         V       0.22558968753729E+01 0.33895808642037E+01
 122         V       0.22879510120671E+01 0.33008884189448E+01
 123         V       0.23016578309295E+01 0.32825048708383E+01
 124         V       0.23339965271247E+01 0.32616923266918E+01
 125         V       0.23504529816367E+01 0.33026164352209E+01
 126         V       0.24002770245922E+01 0.35599344151400E+01
 127         V       0.24410925274806E+01 0.36044522003464E+01
 128         V       0.24641740003700E+01 0.35315463868451E+01
 129         V       0.25063275142512E+01 0.36596978929255E+01
 130         V       0.25384374436710E+01 0.36890857968041E+01
 131         V       0.25641403930292E+01 0.35209979225177E+01
 132         V       0.25828337585914E+01 0.36329185371066E+01
 133         V       0.26481501028832E+01 0.37284057787733E+01
 134         V       0.27103467225503E+01 0.36170405766069E+01
 135         V       0.27487988799170E+01 0.37569902352486E+01
 136         V       0.27620753379748E+01 0.38296756272771E+01
 137         V       0.27983563632294E+01 0.41358866837392E+01
 138         V       0.28180631087329E+01 0.38610401969748E+01
 139         V       0.28526142528043E+01 0.39578799041597E+01
 140         V       0.29382396407556E+01 0.40460038007782E+01
 141         V       0.29679577069218E+01 0.44101695806289E+01
 142         V       0.30588120313823E+01 0.46715362363572E+01
 143         V       0.30852257506986E+01 0.43269694201095E+01
 144         V       0.31253930412023E+01 0.44710695945550E+01
 145         V       0.32297051747802E+01 0.46404607394428E+01
 146         V       0.33552393196211E+01 0.49554215898898E+01
 147         V       0.34066857524663E+01 0.47781942988450E+01
 148         V       0.34756601524702E+01 0.49723210859543E+01
 149         V       0.35260822971574E+01 0.50245313565447E+01
 150         V       0.35673968639809E+01 0.52228630146207E+01
 151         V       0.37487791018862E+01 0.55496936093126E+01
 152         V       0.41540321125934E+01 0.10264386458783E+02
 153         V       0.43666169820451E+01 0.11406708778565E+02
 154         V       0.44609214693520E+01 0.10074465840962E+02
 155         V       0.45853811356308E+01 0.10416737891110E+02
 156         V       0.46018231879874E+01 0.11927460607723E+02
 157         V       0.47126048640272E+01 0.10433958109950E+02
 Total kinetic energy from orbitals= 3.198820078385D+02
 No NMR shielding tensors so no spin-rotation constants.
 Leave Link  601 at Fri Nov  4 21:14:38 2022, MaxMem= 3276800000 cpu:       2.6
 (Enter /local/g09-source/g09/l9999.exe)

 Test job not archived.
 1\1\GINC-WUX25\SP\RwB97XD\Gen\C3H7N1O2\ISSLERK\04-Nov-2022\0\\#p wB97X
 D/GEN 6D Iop(6/7=3) Iop(9/40=14) scf(maxcyc=200,conver=8) nosym Guess(
 Read,TCheck) GFInput\\Comment\\0,1\C,0,-5.051791109,0.471307503,0.8115
 91314\C,0,-3.760025166,1.210425429,0.886662429\N,0,-5.129081234,-0.718
 194566,1.739859622\H,0,-6.049856578,1.023407411,1.118451159\H,0,-5.120
 658506,-0.028978135,-0.262567626\O,0,-6.306783913,-1.120372335,2.00389
 451\O,0,-4.064016976,-1.578084871,1.904624533\C,0,-3.265899689,1.60395
 2933,2.435795414\H,0,-2.987308002,0.596531611,0.314473357\H,0,-3.81348
 8352,2.088379959,0.19512627\H,0,-3.148987868,0.692421568,3.033770976\H
 ,0,-2.5464319,2.375821606,2.406515728\H,0,-4.119796457,2.04616747,2.73
 432043\\Version=EM64L-G09RevA.02\HF=-323.4883783\RMSD=6.687e-09\Dipole
 =0.1426906,1.5740219,-0.8116805\Quadrupole=-1.3279795,1.0298312,0.2981
 484,-13.8472068,8.2909141,5.7586348\PG=C01 [X(C3H7N1O2)]\\@


 ORIGINALITY CONSISTS NOT IN SAYING WHAT NO ONE HAS EVER SAID BEFORE, 
 BUT IN SAYING WHAT YOU THINK YOUR SELF.

                                    -- JAMES F. STEPHEN
 Job cpu time:  0 days  0 hours  3 minutes 38.1 seconds.
 File lengths (MBytes):  RWF=     19 Int=      0 D2E=      0 Chk=      2 Scr=      1
 Normal termination of Gaussian 09 at Fri Nov  4 21:14:38 2022.
