 Entering Gaussian System, Link 0=g09
 Initial command:
 /local/g09-source/g09/l1.exe /scratch/1236642/TRAJ_10/Gau-39883.inp -scrdir=/scratch/1236642/TRAJ_10/
 Entering Link 1 = /local/g09-source/g09/l1.exe PID=     39885.
  
 Copyright (c) 1988,1990,1992,1993,1995,1998,2003,2009, Gaussian, Inc.
                  All Rights Reserved.
  
 This is part of the Gaussian(R) 09 program.  It is based on
 the Gaussian(R) 03 system (copyright 2003, Gaussian, Inc.),
 the Gaussian(R) 98 system (copyright 1998, Gaussian, Inc.),
 the Gaussian(R) 94 system (copyright 1995, Gaussian, Inc.),
 the Gaussian 92(TM) system (copyright 1992, Gaussian, Inc.),
 the Gaussian 90(TM) system (copyright 1990, Gaussian, Inc.),
 the Gaussian 88(TM) system (copyright 1988, Gaussian, Inc.),
 the Gaussian 86(TM) system (copyright 1986, Carnegie Mellon
 University), and the Gaussian 82(TM) system (copyright 1983,
 Carnegie Mellon University). Gaussian is a federally registered
 trademark of Gaussian, Inc.
  
 This software contains proprietary and confidential information,
 including trade secrets, belonging to Gaussian, Inc.
  
 This software is provided under written license and may be
 used, copied, transmitted, or stored only in accord with that
 written license.
  
 The following legend is applicable only to US Government
 contracts under FAR:
  
                    RESTRICTED RIGHTS LEGEND
  
 Use, reproduction and disclosure by the US Government is
 subject to restrictions as set forth in subparagraphs (a)
 and (c) of the Commercial Computer Software - Restricted
 Rights clause in FAR 52.227-19.
  
 Gaussian, Inc.
 340 Quinnipiac St., Bldg. 40, Wallingford CT 06492
  
  
 ---------------------------------------------------------------
 Warning -- This program may not be used in any manner that
 competes with the business of Gaussian, Inc. or will provide
 assistance to any competitor of Gaussian, Inc.  The licensee
 of this program is prohibited from giving any competitor of
 Gaussian, Inc. access to this program.  By using this program,
 the user acknowledges that Gaussian, Inc. is engaged in the
 business of creating and licensing software in the field of
 computational chemistry and represents and warrants to the
 licensee that it is not a competitor of Gaussian, Inc. and that
 it will not use this program in any manner prohibited above.
 ---------------------------------------------------------------
  

 Cite this work as:
 Gaussian 09, Revision A.02,
 M. J. Frisch, G. W. Trucks, H. B. Schlegel, G. E. Scuseria, 
 M. A. Robb, J. R. Cheeseman, G. Scalmani, V. Barone, B. Mennucci, 
 G. A. Petersson, H. Nakatsuji, M. Caricato, X. Li, H. P. Hratchian, 
 A. F. Izmaylov, J. Bloino, G. Zheng, J. L. Sonnenberg, M. Hada, 
 M. Ehara, K. Toyota, R. Fukuda, J. Hasegawa, M. Ishida, T. Nakajima, 
 Y. Honda, O. Kitao, H. Nakai, T. Vreven, J. A. Montgomery, Jr., 
 J. E. Peralta, F. Ogliaro, M. Bearpark, J. J. Heyd, E. Brothers, 
 K. N. Kudin, V. N. Staroverov, R. Kobayashi, J. Normand, 
 K. Raghavachari, A. Rendell, J. C. Burant, S. S. Iyengar, J. Tomasi, 
 M. Cossi, N. Rega, J. M. Millam, M. Klene, J. E. Knox, J. B. Cross, 
 V. Bakken, C. Adamo, J. Jaramillo, R. Gomperts, R. E. Stratmann, 
 O. Yazyev, A. J. Austin, R. Cammi, C. Pomelli, J. W. Ochterski, 
 R. L. Martin, K. Morokuma, V. G. Zakrzewski, G. A. Voth, 
 P. Salvador, J. J. Dannenberg, S. Dapprich, A. D. Daniels, 
 O. Farkas, J. B. Foresman, J. V. Ortiz, J. Cioslowski, 
 and D. J. Fox, Gaussian, Inc., Wallingford CT, 2009.
 
 ******************************************
 Gaussian 09:  EM64L-G09RevA.02 11-Jun-2009
                 4-Nov-2022 
 ******************************************
 %Chk=neu.chk
 %Nproc=10
 Will use up to   10 processors via shared memory.
 %Mem=25000Mb
 ----------------------------------------------------------------------
 #p wB97XD/GEN 6D Iop(6/7=3) Iop(9/40=14) scf(maxcyc=200,conver=8) nosy
 m Guess(Read,TCheck) GFInput
 ----------------------------------------------------------------------
 1/38=1/1;
 2/12=2,15=1,17=6,18=5,40=1/2;
 3/5=7,8=2,11=2,16=1,24=10,25=1,30=1,74=-58/1,2,3;
 4/5=102/1;
 5/5=2,6=8,7=200/2;
 6/7=3,8=2,9=2,10=2,28=1/1;
 99/5=1,9=1/99;
 Leave Link    1 at Fri Nov  4 21:06:24 2022, MaxMem= 3276800000 cpu:       0.5
 (Enter /local/g09-source/g09/l101.exe)
 -------
 Comment
 -------
 Symbolic Z-matrix:
 Charge =  0 Multiplicity = 1
 C                    -5.05123   0.47078   0.80959 
 C                    -3.76015   1.21132   0.8893 
 N                    -5.1288   -0.71709   1.73989 
 H                    -6.04691   1.01447   1.11777 
 H                    -5.12051  -0.01784  -0.25365 
 O                    -6.30738  -1.12064   2.00431 
 O                    -4.06379  -1.57858   1.90452 
 C                    -3.26639   1.60393   2.43524 
 H                    -2.99065   0.58926   0.30869 
 H                    -3.8104    2.0926    0.19483 
 H                    -3.14365   0.6948    3.03959 
 H                    -2.54814   2.36898   2.39674 
 H                    -4.12357   2.04425   2.72983 
 
 NAtoms=     13 NQM=     13 NQMF=      0 NMic=      0 NMicF=      0 NTot=     13.
                    Isotopes and Nuclear Properties:
 (Nuclear quadrupole moments (NQMom) in fm**2, nuclear magnetic moments (NMagM)
  in nuclear magnetons)

  Atom         1           2           3           4           5           6           7           8           9          10
 IAtWgt=          12          12          14           1           1          16          16          12           1           1
 AtmWgt=  12.0000000  12.0000000  14.0030740   1.0078250   1.0078250  15.9949146  15.9949146  12.0000000   1.0078250   1.0078250
 NucSpn=           0           0           2           1           1           0           0           0           1           1
 AtZEff=   0.0000000   0.0000000   0.0000000   0.0000000   0.0000000   0.0000000   0.0000000   0.0000000   0.0000000   0.0000000
 NQMom=    0.0000000   0.0000000   2.0440000   0.0000000   0.0000000   0.0000000   0.0000000   0.0000000   0.0000000   0.0000000
 NMagM=    0.0000000   0.0000000   0.4037610   2.7928460   2.7928460   0.0000000   0.0000000   0.0000000   2.7928460   2.7928460

  Atom        11          12          13
 IAtWgt=           1           1           1
 AtmWgt=   1.0078250   1.0078250   1.0078250
 NucSpn=           1           1           1
 AtZEff=   0.0000000   0.0000000   0.0000000
 NQMom=    0.0000000   0.0000000   0.0000000
 NMagM=    2.7928460   2.7928460   2.7928460
 Leave Link  101 at Fri Nov  4 21:06:24 2022, MaxMem= 3276800000 cpu:       1.4
 (Enter /local/g09-source/g09/l202.exe)
                          Input orientation:                          
 ---------------------------------------------------------------------
 Center     Atomic      Atomic             Coordinates (Angstroms)
 Number     Number       Type             X           Y           Z
 ---------------------------------------------------------------------
      1          6           0       -5.051226    0.470784    0.809591
      2          6           0       -3.760154    1.211317    0.889299
      3          7           0       -5.128800   -0.717089    1.739894
      4          1           0       -6.046911    1.014469    1.117772
      5          1           0       -5.120514   -0.017836   -0.253650
      6          8           0       -6.307385   -1.120645    2.004308
      7          8           0       -4.063791   -1.578583    1.904516
      8          6           0       -3.266390    1.603928    2.435240
      9          1           0       -2.990650    0.589255    0.308686
     10          1           0       -3.810403    2.092605    0.194831
     11          1           0       -3.143649    0.694804    3.039587
     12          1           0       -2.548135    2.368979    2.396744
     13          1           0       -4.123568    2.044252    2.729828
 ---------------------------------------------------------------------
                    Distance matrix (angstroms):
                    1          2          3          4          5
     1  C    0.000000
     2  C    1.490507   0.000000
     3  N    1.510803   2.513057   0.000000
     4  H    1.175567   2.306557   2.056272   0.000000
     5  H    1.172191   2.160493   2.112639   1.950555   0.000000
     6  O    2.353281   3.629005   1.273512   2.326479   2.779069
     7  O    2.524637   2.984360   1.379679   3.357923   2.865358
     8  C    2.666907   1.669695   3.056010   3.132807   3.646646
     9  H    2.123891   1.147262   2.885581   3.190009   2.284972
    10  H    2.132574   1.123156   3.466954   2.648805   2.524180
    11  H    2.943114   2.295779   2.761063   3.496354   3.906566
    12  H    3.519611   2.254232   4.076163   3.963824   4.397568
    13  H    2.650219   2.052656   3.100882   2.712642   3.761283
                    6          7          8          9         10
     6  O    0.000000
     7  O    2.292024   0.000000
     8  C    4.105685   3.323536   0.000000
     9  H    4.098734   2.897900   2.372304   0.000000
    10  H    4.453549   4.057690   2.356733   1.716106   0.000000
    11  H    3.791686   2.702468   1.098548   2.737219   3.238989
    12  H    5.144263   4.257082   1.050083   2.779069   2.553062
    13  H    3.913056   3.716133   1.007681   3.043427   2.554725
                   11         12         13
    11  H    0.000000
    12  H    1.889642   0.000000
    13  H    1.696233   1.642675   0.000000
 Symmetry turned off by external request.
 Stoichiometry    C3H7NO2
 Framework group  C1[X(C3H7NO2)]
 Deg. of freedom    33
 Full point group                 C1      NOp   1
 Rotational constants (GHZ):      5.8771610      2.3460605      2.0950849
 Leave Link  202 at Fri Nov  4 21:06:24 2022, MaxMem= 3276800000 cpu:       0.0
 (Enter /local/g09-source/g09/l301.exe)
 General basis read from cards:  (6D, 7F)
 Centers:   4  5  9 10 11 12 13
 S 3 1.0
     Exponent=  1.8731136960D+01 Coefficients=  3.3494604000D-02
     Exponent=  2.8253943650D+00 Coefficients=  2.3472695400D-01
     Exponent=  6.4012169200D-01 Coefficients=  8.1375732600D-01
 S 1 1.0
     Exponent=  1.6127775900D-01 Coefficients=  1.0000000000D+00
 P 1 1.0
     Exponent=  1.1000000000D+00 Coefficients=  1.0000000000D+00
 ****
 Centers:   1  2  8
 S 6 1.0
     Exponent=  3.0475248800D+03 Coefficients=  1.8347370000D-03
     Exponent=  4.5736951800D+02 Coefficients=  1.4037323000D-02
     Exponent=  1.0394868500D+02 Coefficients=  6.8842622000D-02
     Exponent=  2.9210155300D+01 Coefficients=  2.3218444300D-01
     Exponent=  9.2866629600D+00 Coefficients=  4.6794134800D-01
     Exponent=  3.1639269600D+00 Coefficients=  3.6231198500D-01
 S 3 1.0
     Exponent=  7.8682723500D+00 Coefficients= -1.1933242000D-01
     Exponent=  1.8812885400D+00 Coefficients= -1.6085415200D-01
     Exponent=  5.4424925800D-01 Coefficients=  1.1434564380D+00
 S 1 1.0
     Exponent=  1.6871447800D-01 Coefficients=  1.0000000000D+00
 S 1 1.0
     Exponent=  4.3800000000D-02 Coefficients=  1.0000000000D+00
 P 3 1.0
     Exponent=  7.8682723500D+00 Coefficients=  6.8999067000D-02
     Exponent=  1.8812885400D+00 Coefficients=  3.1642396100D-01
     Exponent=  5.4424925800D-01 Coefficients=  7.4430829100D-01
 P 1 1.0
     Exponent=  1.6871447800D-01 Coefficients=  1.0000000000D+00
 P 1 1.0
     Exponent=  4.3800000000D-02 Coefficients=  1.0000000000D+00
 D 1 1.0
     Exponent=  8.0000000000D-01 Coefficients=  1.0000000000D+00
 ****
 Centers:   3
 S 6 1.0
     Exponent=  4.1735114600D+03 Coefficients=  1.8347720000D-03
     Exponent=  6.2745791100D+02 Coefficients=  1.3994627000D-02
     Exponent=  1.4290209300D+02 Coefficients=  6.8586552000D-02
     Exponent=  4.0234329300D+01 Coefficients=  2.3224087300D-01
     Exponent=  1.2820212900D+01 Coefficients=  4.6906994800D-01
     Exponent=  4.3904370100D+00 Coefficients=  3.6045519900D-01
 S 3 1.0
     Exponent=  1.1626361860D+01 Coefficients= -1.1496118200D-01
     Exponent=  2.7162798070D+00 Coefficients= -1.6911747900D-01
     Exponent=  7.7221839700D-01 Coefficients=  1.1458519470D+00
 S 1 1.0
     Exponent=  2.1203149700D-01 Coefficients=  1.0000000000D+00
 S 1 1.0
     Exponent=  6.3900000000D-02 Coefficients=  1.0000000000D+00
 S 1 1.0
     Exponent=  1.8257143000D-02 Coefficients=  1.0000000000D+00
 S 1 1.0
     Exponent=  5.2163270000D-03 Coefficients=  1.0000000000D+00
 P 3 1.0
     Exponent=  1.1626361860D+01 Coefficients=  6.7579744000D-02
     Exponent=  2.7162798070D+00 Coefficients=  3.2390729600D-01
     Exponent=  7.7221839700D-01 Coefficients=  7.4089514000D-01
 P 1 1.0
     Exponent=  2.1203149700D-01 Coefficients=  1.0000000000D+00
 P 1 1.0
     Exponent=  6.3900000000D-02 Coefficients=  1.0000000000D+00
 P 1 1.0
     Exponent=  1.8257143000D-02 Coefficients=  1.0000000000D+00
 P 1 1.0
     Exponent=  5.2163270000D-03 Coefficients=  1.0000000000D+00
 D 1 1.0
     Exponent=  8.0000000000D-01 Coefficients=  1.0000000000D+00
 ****
 Centers:   6  7
 S 6 1.0
     Exponent=  5.4846716600D+03 Coefficients=  1.8310740000D-03
     Exponent=  8.2523494600D+02 Coefficients=  1.3950172000D-02
     Exponent=  1.8804695800D+02 Coefficients=  6.8445078000D-02
     Exponent=  5.2964500000D+01 Coefficients=  2.3271433600D-01
     Exponent=  1.6897570400D+01 Coefficients=  4.7019289800D-01
     Exponent=  5.7996353400D+00 Coefficients=  3.5852085300D-01
 S 3 1.0
     Exponent=  1.5539616250D+01 Coefficients= -1.1077755000D-01
     Exponent=  3.5999335860D+00 Coefficients= -1.4802626300D-01
     Exponent=  1.0137617500D+00 Coefficients=  1.1307670150D+00
 S 1 1.0
     Exponent=  2.7000582300D-01 Coefficients=  1.0000000000D+00
 S 1 1.0
     Exponent=  8.4500000000D-02 Coefficients=  1.0000000000D+00
 P 3 1.0
     Exponent=  1.5539616250D+01 Coefficients=  7.0874268000D-02
     Exponent=  3.5999335860D+00 Coefficients=  3.3975283900D-01
     Exponent=  1.0137617500D+00 Coefficients=  7.2715857700D-01
 P 1 1.0
     Exponent=  2.7000582300D-01 Coefficients=  1.0000000000D+00
 P 1 1.0
     Exponent=  8.4500000000D-02 Coefficients=  1.0000000000D+00
 D 1 1.0
     Exponent=  8.0000000000D-01 Coefficients=  1.0000000000D+00
 ****
 Ernie: Thresh=  0.10000D-02 Tol=  0.10000D-05 Strict=F.
 AO basis set in the form of general basis input (Overlap normalization):
      1 0
 S   6 1.00       0.000000000000
      0.3047524880D+04  0.1834737002D-02
      0.4573695180D+03  0.1403732301D-01
      0.1039486850D+03  0.6884262207D-01
      0.2921015530D+02  0.2321844432D+00
      0.9286662960D+01  0.4679413485D+00
      0.3163926960D+01  0.3623119854D+00
 S   3 1.00       0.000000000000
      0.7868272350D+01 -0.1193324200D+00
      0.1881288540D+01 -0.1608541520D+00
      0.5442492580D+00  0.1143456438D+01
 S   1 1.00       0.000000000000
      0.1687144780D+00  0.1000000000D+01
 S   1 1.00       0.000000000000
      0.4380000000D-01  0.1000000000D+01
 P   3 1.00       0.000000000000
      0.7868272350D+01  0.6899906698D-01
      0.1881288540D+01  0.3164239609D+00
      0.5442492580D+00  0.7443082908D+00
 P   1 1.00       0.000000000000
      0.1687144780D+00  0.1000000000D+01
 P   1 1.00       0.000000000000
      0.4380000000D-01  0.1000000000D+01
 D   1 1.00       0.000000000000
      0.8000000000D+00  0.1000000000D+01
 ****
      2 0
 S   6 1.00       0.000000000000
      0.3047524880D+04  0.1834737002D-02
      0.4573695180D+03  0.1403732301D-01
      0.1039486850D+03  0.6884262207D-01
      0.2921015530D+02  0.2321844432D+00
      0.9286662960D+01  0.4679413485D+00
      0.3163926960D+01  0.3623119854D+00
 S   3 1.00       0.000000000000
      0.7868272350D+01 -0.1193324200D+00
      0.1881288540D+01 -0.1608541520D+00
      0.5442492580D+00  0.1143456438D+01
 S   1 1.00       0.000000000000
      0.1687144780D+00  0.1000000000D+01
 S   1 1.00       0.000000000000
      0.4380000000D-01  0.1000000000D+01
 P   3 1.00       0.000000000000
      0.7868272350D+01  0.6899906698D-01
      0.1881288540D+01  0.3164239609D+00
      0.5442492580D+00  0.7443082908D+00
 P   1 1.00       0.000000000000
      0.1687144780D+00  0.1000000000D+01
 P   1 1.00       0.000000000000
      0.4380000000D-01  0.1000000000D+01
 D   1 1.00       0.000000000000
      0.8000000000D+00  0.1000000000D+01
 ****
      3 0
 S   6 1.00       0.000000000000
      0.4173511460D+04  0.1834772000D-02
      0.6274579110D+03  0.1399462700D-01
      0.1429020930D+03  0.6858655201D-01
      0.4023432930D+02  0.2322408730D+00
      0.1282021290D+02  0.4690699480D+00
      0.4390437010D+01  0.3604551990D+00
 S   3 1.00       0.000000000000
      0.1162636186D+02 -0.1149611820D+00
      0.2716279807D+01 -0.1691174791D+00
      0.7722183970D+00  0.1145851947D+01
 S   1 1.00       0.000000000000
      0.2120314970D+00  0.1000000000D+01
 S   1 1.00       0.000000000000
      0.6390000000D-01  0.1000000000D+01
 S   1 1.00       0.000000000000
      0.1825714300D-01  0.1000000000D+01
 S   1 1.00       0.000000000000
      0.5216327000D-02  0.1000000000D+01
 P   3 1.00       0.000000000000
      0.1162636186D+02  0.6757974397D-01
      0.2716279807D+01  0.3239072959D+00
      0.7722183970D+00  0.7408951397D+00
 P   1 1.00       0.000000000000
      0.2120314970D+00  0.1000000000D+01
 P   1 1.00       0.000000000000
      0.6390000000D-01  0.1000000000D+01
 P   1 1.00       0.000000000000
      0.1825714300D-01  0.1000000000D+01
 P   1 1.00       0.000000000000
      0.5216327000D-02  0.1000000000D+01
 D   1 1.00       0.000000000000
      0.8000000000D+00  0.1000000000D+01
 ****
      4 0
 S   3 1.00       0.000000000000
      0.1873113696D+02  0.3349460400D-01
      0.2825394365D+01  0.2347269540D+00
      0.6401216920D+00  0.8137573259D+00
 S   1 1.00       0.000000000000
      0.1612777590D+00  0.1000000000D+01
 P   1 1.00       0.000000000000
      0.1100000000D+01  0.1000000000D+01
 ****
      5 0
 S   3 1.00       0.000000000000
      0.1873113696D+02  0.3349460400D-01
      0.2825394365D+01  0.2347269540D+00
      0.6401216920D+00  0.8137573259D+00
 S   1 1.00       0.000000000000
      0.1612777590D+00  0.1000000000D+01
 P   1 1.00       0.000000000000
      0.1100000000D+01  0.1000000000D+01
 ****
      6 0
 S   6 1.00       0.000000000000
      0.5484671660D+04  0.1831074000D-02
      0.8252349460D+03  0.1395017200D-01
      0.1880469580D+03  0.6844507801D-01
      0.5296450000D+02  0.2327143360D+00
      0.1689757040D+02  0.4701928980D+00
      0.5799635340D+01  0.3585208530D+00
 S   3 1.00       0.000000000000
      0.1553961625D+02 -0.1107775501D+00
      0.3599933586D+01 -0.1480262631D+00
      0.1013761750D+01  0.1130767016D+01
 S   1 1.00       0.000000000000
      0.2700058230D+00  0.1000000000D+01
 S   1 1.00       0.000000000000
      0.8450000000D-01  0.1000000000D+01
 P   3 1.00       0.000000000000
      0.1553961625D+02  0.7087426804D-01
      0.3599933586D+01  0.3397528392D+00
      0.1013761750D+01  0.7271585774D+00
 P   1 1.00       0.000000000000
      0.2700058230D+00  0.1000000000D+01
 P   1 1.00       0.000000000000
      0.8450000000D-01  0.1000000000D+01
 D   1 1.00       0.000000000000
      0.8000000000D+00  0.1000000000D+01
 ****
      7 0
 S   6 1.00       0.000000000000
      0.5484671660D+04  0.1831074000D-02
      0.8252349460D+03  0.1395017200D-01
      0.1880469580D+03  0.6844507801D-01
      0.5296450000D+02  0.2327143360D+00
      0.1689757040D+02  0.4701928980D+00
      0.5799635340D+01  0.3585208530D+00
 S   3 1.00       0.000000000000
      0.1553961625D+02 -0.1107775501D+00
      0.3599933586D+01 -0.1480262631D+00
      0.1013761750D+01  0.1130767016D+01
 S   1 1.00       0.000000000000
      0.2700058230D+00  0.1000000000D+01
 S   1 1.00       0.000000000000
      0.8450000000D-01  0.1000000000D+01
 P   3 1.00       0.000000000000
      0.1553961625D+02  0.7087426804D-01
      0.3599933586D+01  0.3397528392D+00
      0.1013761750D+01  0.7271585774D+00
 P   1 1.00       0.000000000000
      0.2700058230D+00  0.1000000000D+01
 P   1 1.00       0.000000000000
      0.8450000000D-01  0.1000000000D+01
 D   1 1.00       0.000000000000
      0.8000000000D+00  0.1000000000D+01
 ****
      8 0
 S   6 1.00       0.000000000000
      0.3047524880D+04  0.1834737002D-02
      0.4573695180D+03  0.1403732301D-01
      0.1039486850D+03  0.6884262207D-01
      0.2921015530D+02  0.2321844432D+00
      0.9286662960D+01  0.4679413485D+00
      0.3163926960D+01  0.3623119854D+00
 S   3 1.00       0.000000000000
      0.7868272350D+01 -0.1193324200D+00
      0.1881288540D+01 -0.1608541520D+00
      0.5442492580D+00  0.1143456438D+01
 S   1 1.00       0.000000000000
      0.1687144780D+00  0.1000000000D+01
 S   1 1.00       0.000000000000
      0.4380000000D-01  0.1000000000D+01
 P   3 1.00       0.000000000000
      0.7868272350D+01  0.6899906698D-01
      0.1881288540D+01  0.3164239609D+00
      0.5442492580D+00  0.7443082908D+00
 P   1 1.00       0.000000000000
      0.1687144780D+00  0.1000000000D+01
 P   1 1.00       0.000000000000
      0.4380000000D-01  0.1000000000D+01
 D   1 1.00       0.000000000000
      0.8000000000D+00  0.1000000000D+01
 ****
      9 0
 S   3 1.00       0.000000000000
      0.1873113696D+02  0.3349460400D-01
      0.2825394365D+01  0.2347269540D+00
      0.6401216920D+00  0.8137573259D+00
 S   1 1.00       0.000000000000
      0.1612777590D+00  0.1000000000D+01
 P   1 1.00       0.000000000000
      0.1100000000D+01  0.1000000000D+01
 ****
     10 0
 S   3 1.00       0.000000000000
      0.1873113696D+02  0.3349460400D-01
      0.2825394365D+01  0.2347269540D+00
      0.6401216920D+00  0.8137573259D+00
 S   1 1.00       0.000000000000
      0.1612777590D+00  0.1000000000D+01
 P   1 1.00       0.000000000000
      0.1100000000D+01  0.1000000000D+01
 ****
     11 0
 S   3 1.00       0.000000000000
      0.1873113696D+02  0.3349460400D-01
      0.2825394365D+01  0.2347269540D+00
      0.6401216920D+00  0.8137573259D+00
 S   1 1.00       0.000000000000
      0.1612777590D+00  0.1000000000D+01
 P   1 1.00       0.000000000000
      0.1100000000D+01  0.1000000000D+01
 ****
     12 0
 S   3 1.00       0.000000000000
      0.1873113696D+02  0.3349460400D-01
      0.2825394365D+01  0.2347269540D+00
      0.6401216920D+00  0.8137573259D+00
 S   1 1.00       0.000000000000
      0.1612777590D+00  0.1000000000D+01
 P   1 1.00       0.000000000000
      0.1100000000D+01  0.1000000000D+01
 ****
     13 0
 S   3 1.00       0.000000000000
      0.1873113696D+02  0.3349460400D-01
      0.2825394365D+01  0.2347269540D+00
      0.6401216920D+00  0.8137573259D+00
 S   1 1.00       0.000000000000
      0.1612777590D+00  0.1000000000D+01
 P   1 1.00       0.000000000000
      0.1100000000D+01  0.1000000000D+01
 ****

 Integral buffers will be    131072 words long.
 Raffenetti 2 integral format.
 Two-electron integral symmetry is turned off.
   157 basis functions,   249 primitive gaussians,   157 cartesian basis functions
    24 alpha electrons       24 beta electrons
       nuclear repulsion energy       240.8208259962 Hartrees.
 IExCor= 4639 DFT=T Ex+Corr=wB97XD ExCW=0 ScaHFX=  1.000000
 ScaDFX=  1.000000  1.000000  1.000000  1.000000 ScalE2=  1.000000  1.000000
 IRadAn=      0 IRanWt=     -1 IRanGd=            0 ICorTp=0
  HFx wShort=  0.000000 wLong=  0.200000 cFull=  0.222036 cShort=  0.000000 cLong=  0.777964
  DFx wShort=  0.000000 wLong=  0.200000 cFull=  0.000000 cShort=  0.000000 cLong=  1.000000
 NAtoms=   13 NActive=   13 NUniq=   13 SFac= 7.50D-01 NAtFMM=   80 NAOKFM=F Big=F
 R6Disp: Dispersion energy =        -0.0058214160 Hartrees.
 Nuclear repulsion after empirical dispersion term =      240.8150045803 Hartrees.
 Leave Link  301 at Fri Nov  4 21:06:24 2022, MaxMem= 3276800000 cpu:       0.5
 (Enter /local/g09-source/g09/l302.exe)
 NPDir=0 NMtPBC=     1 NCelOv=     1 NCel=       1 NClECP=     1 NCelD=      1
         NCelK=      1 NCelE2=     1 NClLst=     1 CellRange=     0.0.
 One-electron integrals computed using PRISM.
 NBasis=   157 RedAO= T  NBF=   157
 NBsUse=   157 1.00D-06 NBFU=   157
 Precomputing XC quadrature grid using
 IXCGrd= 2 IRadAn=           0 IRanWt=          -1 IRanGd=           0 AccXCQ= 1.00D-10.
 NRdTot=     881 NPtTot=      113336 NUsed=      119685 NTot=      119717
 NSgBfM=   157   157   157   157   157 NAtAll=    13    13.
 Leave Link  302 at Fri Nov  4 21:06:24 2022, MaxMem= 3276800000 cpu:       2.0
 (Enter /local/g09-source/g09/l303.exe)
 DipDrv:  MaxL=1.
 Leave Link  303 at Fri Nov  4 21:06:25 2022, MaxMem= 3276800000 cpu:       1.0
 (Enter /local/g09-source/g09/l401.exe)
 Initial guess read from the checkpoint file:  neu.chk
 B after Tr=     0.000422    0.000564    0.001415
         Rot=    1.000000   -0.000008    0.000077   -0.000023 Ang=   0.01 deg.
 Guess basis will be translated and rotated to current coordinates.
 Leave Link  401 at Fri Nov  4 21:06:25 2022, MaxMem= 3276800000 cpu:       1.3
 (Enter /local/g09-source/g09/l502.exe)
 Closed shell SCF:
 Requested convergence on RMS density matrix=1.00D-08 within 200 cycles.
 Requested convergence on MAX density matrix=1.00D-06.
 Requested convergence on             energy=1.00D-06.
 No special actions if energy rises.
 Using DIIS extrapolation, IDIIS=  1040.
 Two-electron integral symmetry not used.
       119555 words used for storage of precomputed grid.
 IEnd=      238162 IEndB=      238162 NGot=  3276800000 MDV=  3276627045
 LenX=  3276627045 LenY=  3276601955
 Fock matrices will be formed incrementally for  20 cycles.

 Cycle   1  Pass 1  IDiag  1:
 FoFJK:  IHMeth= 1 ICntrl=     0 DoSepK=T KAlg= 1 I1Cent= 0 FoldK=F
 FoFCou: FMM=F IPFlag=           0 FMFlag=      100000 FMFlg1=           0
         NFxFlg=           0 DoJE=T BraDBF=F KetDBF=F FulRan=T
         Omega=  0.000000  0.000000  1.000000  0.000000  0.000000 ICntrl=     500 IOpCl=  0
         NMat0=    1 NMatS0=    1 NMatT0=    0 NMatD0=    1 NMtDS0=    0 NMtDT0=    0
         I1Cent=           0 NGrid=           0.
 Symmetry not used in FoFCou.
 E= -323.488992767263    
 DIIS: error= 2.90D-04 at cycle   1 NSaved=   1.
 NSaved= 1 IEnMin= 1 EnMin= -323.488992767263     IErMin= 1 ErrMin= 2.90D-04
 ErrMax= 2.90D-04 EMaxC= 1.00D-01 BMatC= 4.93D-05 BMatP= 4.93D-05
 IDIUse=3 WtCom= 9.97D-01 WtEn= 2.90D-03
 Coeff-Com:  0.100D+01
 Coeff-En:   0.100D+01
 Coeff:      0.100D+01
 Gap=     0.328 Goal=   None    Shift=    0.000
 RMSDP=8.49D-05 MaxDP=1.95D-03              OVMax= 2.34D-03

 Cycle   2  Pass 1  IDiag  1:
 RMSU=  6.00D-05    CP:  1.00D+00
 FoFJK:  IHMeth= 1 ICntrl=     0 DoSepK=T KAlg= 1 I1Cent= 0 FoldK=F
 E= -323.489060454238     Delta-E=       -0.000067686976 Rises=F Damp=F
 DIIS: error= 1.16D-04 at cycle   2 NSaved=   2.
 NSaved= 2 IEnMin= 2 EnMin= -323.489060454238     IErMin= 2 ErrMin= 1.16D-04
 ErrMax= 1.16D-04 EMaxC= 1.00D-01 BMatC= 7.36D-06 BMatP= 4.93D-05
 IDIUse=3 WtCom= 9.99D-01 WtEn= 1.16D-03
 Coeff-Com:  0.139D+00 0.861D+00
 Coeff-En:   0.000D+00 0.100D+01
 Coeff:      0.139D+00 0.861D+00
 Gap=     0.328 Goal=   None    Shift=    0.000
 RMSDP=2.79D-05 MaxDP=8.70D-04 DE=-6.77D-05 OVMax= 7.24D-04

 Cycle   3  Pass 1  IDiag  1:
 RMSU=  1.97D-05    CP:  1.00D+00  1.00D+00
 FoFJK:  IHMeth= 1 ICntrl=     0 DoSepK=T KAlg= 1 I1Cent= 0 FoldK=F
 E= -323.489066436720     Delta-E=       -0.000005982481 Rises=F Damp=F
 DIIS: error= 8.30D-05 at cycle   3 NSaved=   3.
 NSaved= 3 IEnMin= 3 EnMin= -323.489066436720     IErMin= 3 ErrMin= 8.30D-05
 ErrMax= 8.30D-05 EMaxC= 1.00D-01 BMatC= 2.61D-06 BMatP= 7.36D-06
 IDIUse=1 WtCom= 1.00D+00 WtEn= 0.00D+00
 Coeff-Com: -0.582D-01 0.353D+00 0.706D+00
 Coeff:     -0.582D-01 0.353D+00 0.706D+00
 Gap=     0.328 Goal=   None    Shift=    0.000
 RMSDP=1.30D-05 MaxDP=3.57D-04 DE=-5.98D-06 OVMax= 4.81D-04

 Cycle   4  Pass 1  IDiag  1:
 RMSU=  7.64D-06    CP:  1.00D+00  1.07D+00  8.48D-01
 FoFJK:  IHMeth= 1 ICntrl=     0 DoSepK=T KAlg= 1 I1Cent= 0 FoldK=F
 E= -323.489068659165     Delta-E=       -0.000002222446 Rises=F Damp=F
 DIIS: error= 5.82D-05 at cycle   4 NSaved=   4.
 NSaved= 4 IEnMin= 4 EnMin= -323.489068659165     IErMin= 4 ErrMin= 5.82D-05
 ErrMax= 5.82D-05 EMaxC= 1.00D-01 BMatC= 6.07D-07 BMatP= 2.61D-06
 IDIUse=1 WtCom= 1.00D+00 WtEn= 0.00D+00
 Coeff-Com: -0.422D-01 0.153D+00 0.410D+00 0.479D+00
 Coeff:     -0.422D-01 0.153D+00 0.410D+00 0.479D+00
 Gap=     0.328 Goal=   None    Shift=    0.000
 RMSDP=5.19D-06 MaxDP=1.93D-04 DE=-2.22D-06 OVMax= 3.02D-04

 Cycle   5  Pass 1  IDiag  1:
 RMSU=  3.23D-06    CP:  1.00D+00  1.07D+00  9.14D-01  8.52D-01
 FoFJK:  IHMeth= 1 ICntrl=     0 DoSepK=T KAlg= 1 I1Cent= 0 FoldK=F
 E= -323.489069072683     Delta-E=       -0.000000413518 Rises=F Damp=F
 DIIS: error= 2.90D-05 at cycle   5 NSaved=   5.
 NSaved= 5 IEnMin= 5 EnMin= -323.489069072683     IErMin= 5 ErrMin= 2.90D-05
 ErrMax= 2.90D-05 EMaxC= 1.00D-01 BMatC= 7.53D-08 BMatP= 6.07D-07
 IDIUse=1 WtCom= 1.00D+00 WtEn= 0.00D+00
 Coeff-Com: -0.666D-02-0.168D-01 0.328D-01 0.264D+00 0.727D+00
 Coeff:     -0.666D-02-0.168D-01 0.328D-01 0.264D+00 0.727D+00
 Gap=     0.328 Goal=   None    Shift=    0.000
 RMSDP=2.70D-06 MaxDP=6.96D-05 DE=-4.14D-07 OVMax= 1.55D-04

 Cycle   6  Pass 1  IDiag  1:
 RMSU=  1.22D-06    CP:  1.00D+00  1.07D+00  9.41D-01  1.02D+00  8.87D-01
 FoFJK:  IHMeth= 1 ICntrl=     0 DoSepK=T KAlg= 1 I1Cent= 0 FoldK=F
 E= -323.489069137507     Delta-E=       -0.000000064824 Rises=F Damp=F
 DIIS: error= 1.03D-05 at cycle   6 NSaved=   6.
 NSaved= 6 IEnMin= 6 EnMin= -323.489069137507     IErMin= 6 ErrMin= 1.03D-05
 ErrMax= 1.03D-05 EMaxC= 1.00D-01 BMatC= 1.81D-08 BMatP= 7.53D-08
 IDIUse=1 WtCom= 1.00D+00 WtEn= 0.00D+00
 Coeff-Com: -0.990D-04-0.257D-01-0.170D-01 0.111D+00 0.454D+00 0.477D+00
 Coeff:     -0.990D-04-0.257D-01-0.170D-01 0.111D+00 0.454D+00 0.477D+00
 Gap=     0.328 Goal=   None    Shift=    0.000
 RMSDP=1.01D-06 MaxDP=2.73D-05 DE=-6.48D-08 OVMax= 3.69D-05

 Cycle   7  Pass 1  IDiag  1:
 RMSU=  5.20D-07    CP:  1.00D+00  1.07D+00  9.46D-01  1.05D+00  9.88D-01
                    CP:  7.63D-01
 FoFJK:  IHMeth= 1 ICntrl=     0 DoSepK=T KAlg= 1 I1Cent= 0 FoldK=F
 E= -323.489069151795     Delta-E=       -0.000000014288 Rises=F Damp=F
 DIIS: error= 2.21D-06 at cycle   7 NSaved=   7.
 NSaved= 7 IEnMin= 7 EnMin= -323.489069151795     IErMin= 7 ErrMin= 2.21D-06
 ErrMax= 2.21D-06 EMaxC= 1.00D-01 BMatC= 1.19D-09 BMatP= 1.81D-08
 IDIUse=1 WtCom= 1.00D+00 WtEn= 0.00D+00
 Coeff-Com:  0.177D-02-0.831D-02-0.156D-01-0.261D-01 0.248D-01 0.191D+00
 Coeff-Com:  0.833D+00
 Coeff:      0.177D-02-0.831D-02-0.156D-01-0.261D-01 0.248D-01 0.191D+00
 Coeff:      0.833D+00
 Gap=     0.328 Goal=   None    Shift=    0.000
 RMSDP=4.89D-07 MaxDP=9.46D-06 DE=-1.43D-08 OVMax= 2.53D-05

 Cycle   8  Pass 1  IDiag  1:
 RMSU=  2.02D-07    CP:  1.00D+00  1.07D+00  9.51D-01  1.07D+00  1.02D+00
                    CP:  8.79D-01  1.17D+00
 FoFJK:  IHMeth= 1 ICntrl=     0 DoSepK=T KAlg= 1 I1Cent= 0 FoldK=F
 E= -323.489069153777     Delta-E=       -0.000000001982 Rises=F Damp=F
 DIIS: error= 5.92D-07 at cycle   8 NSaved=   8.
 NSaved= 8 IEnMin= 8 EnMin= -323.489069153777     IErMin= 8 ErrMin= 5.92D-07
 ErrMax= 5.92D-07 EMaxC= 1.00D-01 BMatC= 1.09D-10 BMatP= 1.19D-09
 IDIUse=1 WtCom= 1.00D+00 WtEn= 0.00D+00
 Coeff-Com:  0.448D-03 0.159D-03-0.167D-02-0.175D-01-0.291D-01-0.844D-02
 Coeff-Com:  0.200D+00 0.856D+00
 Coeff:      0.448D-03 0.159D-03-0.167D-02-0.175D-01-0.291D-01-0.844D-02
 Coeff:      0.200D+00 0.856D+00
 Gap=     0.328 Goal=   None    Shift=    0.000
 RMSDP=1.76D-07 MaxDP=2.91D-06 DE=-1.98D-09 OVMax= 1.39D-05

 Cycle   9  Pass 1  IDiag  1:
 RMSU=  6.98D-08    CP:  1.00D+00  1.07D+00  9.52D-01  1.07D+00  1.03D+00
                    CP:  9.11D-01  1.29D+00  1.28D+00
 FoFJK:  IHMeth= 1 ICntrl=     0 DoSepK=T KAlg= 1 I1Cent= 0 FoldK=F
 E= -323.489069154113     Delta-E=       -0.000000000335 Rises=F Damp=F
 DIIS: error= 3.56D-07 at cycle   9 NSaved=   9.
 NSaved= 9 IEnMin= 9 EnMin= -323.489069154113     IErMin= 9 ErrMin= 3.56D-07
 ErrMax= 3.56D-07 EMaxC= 1.00D-01 BMatC= 2.31D-11 BMatP= 1.09D-10
 IDIUse=1 WtCom= 1.00D+00 WtEn= 0.00D+00
 Coeff-Com: -0.328D-03 0.177D-02 0.337D-02 0.224D-02-0.628D-02-0.497D-01
 Coeff-Com: -0.148D+00 0.133D+00 0.106D+01
 Coeff:     -0.328D-03 0.177D-02 0.337D-02 0.224D-02-0.628D-02-0.497D-01
 Coeff:     -0.148D+00 0.133D+00 0.106D+01
 Gap=     0.328 Goal=   None    Shift=    0.000
 RMSDP=1.19D-07 MaxDP=2.22D-06 DE=-3.35D-10 OVMax= 1.19D-05

 Cycle  10  Pass 1  IDiag  1:
 RMSU=  3.99D-08    CP:  1.00D+00  1.07D+00  9.52D-01  1.07D+00  1.03D+00
                    CP:  9.23D-01  1.37D+00  1.53D+00  1.50D+00
 FoFJK:  IHMeth= 1 ICntrl=     0 DoSepK=T KAlg= 1 I1Cent= 0 FoldK=F
 E= -323.489069154243     Delta-E=       -0.000000000131 Rises=F Damp=F
 DIIS: error= 1.57D-07 at cycle  10 NSaved=  10.
 NSaved=10 IEnMin=10 EnMin= -323.489069154243     IErMin=10 ErrMin= 1.57D-07
 ErrMax= 1.57D-07 EMaxC= 1.00D-01 BMatC= 3.82D-12 BMatP= 2.31D-11
 IDIUse=1 WtCom= 1.00D+00 WtEn= 0.00D+00
 Coeff-Com: -0.138D-03 0.196D-03 0.841D-03 0.381D-02 0.619D-02-0.718D-02
 Coeff-Com: -0.600D-01-0.166D+00 0.159D+00 0.106D+01
 Coeff:     -0.138D-03 0.196D-03 0.841D-03 0.381D-02 0.619D-02-0.718D-02
 Coeff:     -0.600D-01-0.166D+00 0.159D+00 0.106D+01
 Gap=     0.328 Goal=   None    Shift=    0.000
 RMSDP=5.95D-08 MaxDP=1.20D-06 DE=-1.31D-10 OVMax= 6.28D-06

 Cycle  11  Pass 1  IDiag  1:
 RMSU=  1.33D-08    CP:  1.00D+00  1.07D+00  9.52D-01  1.07D+00  1.03D+00
                    CP:  9.25D-01  1.38D+00  1.63D+00  1.88D+00  1.47D+00
 FoFJK:  IHMeth= 1 ICntrl=     0 DoSepK=T KAlg= 1 I1Cent= 0 FoldK=F
 E= -323.489069154270     Delta-E=       -0.000000000027 Rises=F Damp=F
 DIIS: error= 5.01D-08 at cycle  11 NSaved=  11.
 NSaved=11 IEnMin=11 EnMin= -323.489069154270     IErMin=11 ErrMin= 5.01D-08
 ErrMax= 5.01D-08 EMaxC= 1.00D-01 BMatC= 5.09D-13 BMatP= 3.82D-12
 IDIUse=1 WtCom= 1.00D+00 WtEn= 0.00D+00
 Coeff-Com:  0.244D-04-0.240D-03-0.348D-03 0.549D-03 0.197D-02 0.607D-02
 Coeff-Com:  0.112D-01-0.527D-01-0.138D+00 0.189D+00 0.982D+00
 Coeff:      0.244D-04-0.240D-03-0.348D-03 0.549D-03 0.197D-02 0.607D-02
 Coeff:      0.112D-01-0.527D-01-0.138D+00 0.189D+00 0.982D+00
 Gap=     0.328 Goal=   None    Shift=    0.000
 RMSDP=2.17D-08 MaxDP=4.37D-07 DE=-2.66D-11 OVMax= 2.21D-06

 Cycle  12  Pass 1  IDiag  1:
 RMSU=  5.48D-09    CP:  1.00D+00  1.07D+00  9.52D-01  1.07D+00  1.03D+00
                    CP:  9.26D-01  1.38D+00  1.65D+00  2.01D+00  1.71D+00
                    CP:  1.34D+00
 FoFJK:  IHMeth= 1 ICntrl=     0 DoSepK=T KAlg= 1 I1Cent= 0 FoldK=F
 E= -323.489069154275     Delta-E=       -0.000000000005 Rises=F Damp=F
 DIIS: error= 1.84D-08 at cycle  12 NSaved=  12.
 NSaved=12 IEnMin=12 EnMin= -323.489069154275     IErMin=12 ErrMin= 1.84D-08
 ErrMax= 1.84D-08 EMaxC= 1.00D-01 BMatC= 1.02D-13 BMatP= 5.09D-13
 IDIUse=1 WtCom= 1.00D+00 WtEn= 0.00D+00
 Coeff-Com:  0.223D-04-0.669D-04-0.160D-03-0.351D-03-0.835D-03 0.249D-02
 Coeff-Com:  0.956D-02 0.170D-01-0.432D-01-0.131D+00 0.156D+00 0.991D+00
 Coeff:      0.223D-04-0.669D-04-0.160D-03-0.351D-03-0.835D-03 0.249D-02
 Coeff:      0.956D-02 0.170D-01-0.432D-01-0.131D+00 0.156D+00 0.991D+00
 Gap=     0.328 Goal=   None    Shift=    0.000
 RMSDP=7.48D-09 MaxDP=1.66D-07 DE=-4.55D-12 OVMax= 6.44D-07

 SCF Done:  E(RwB97XD) =  -323.489069154     A.U. after   12 cycles
             Convg  =    0.7481D-08             -V/T =  2.0112
 KE= 3.198942803841D+02 PE=-1.236449177090D+03 EE= 3.522508229709D+02
 Leave Link  502 at Fri Nov  4 21:06:45 2022, MaxMem= 3276800000 cpu:     206.0
 (Enter /local/g09-source/g09/l601.exe)
 Copying SCF densities to generalized density rwf, IOpCl= 0 IROHF=0.

 **********************************************************************

            Population analysis using the SCF density.

 **********************************************************************

 Alpha  occ. eigenvalues --  -19.34237 -19.32170 -14.70063 -10.40021 -10.34321
 Alpha  occ. eigenvalues --  -10.30582  -1.28336  -1.10283  -0.94929  -0.84997
 Alpha  occ. eigenvalues --   -0.77618  -0.69321  -0.62204  -0.61526  -0.59549
 Alpha  occ. eigenvalues --   -0.55037  -0.53877  -0.50294  -0.48569  -0.45173
 Alpha  occ. eigenvalues --   -0.42697  -0.40424  -0.39163  -0.38020
 Alpha virt. eigenvalues --   -0.05210   0.00739   0.01355   0.01436   0.01719
 Alpha virt. eigenvalues --    0.04630   0.06245   0.06716   0.07267   0.09348
 Alpha virt. eigenvalues --    0.09835   0.10938   0.11857   0.12396   0.13635
 Alpha virt. eigenvalues --    0.14505   0.15639   0.16201   0.16513   0.17640
 Alpha virt. eigenvalues --    0.18416   0.20144   0.21894   0.22527   0.22850
 Alpha virt. eigenvalues --    0.23528   0.25984   0.26311   0.28554   0.29562
 Alpha virt. eigenvalues --    0.30991   0.31317   0.33236   0.34575   0.34896
 Alpha virt. eigenvalues --    0.36100   0.36842   0.37883   0.38450   0.39519
 Alpha virt. eigenvalues --    0.40156   0.41908   0.47309   0.48275   0.54667
 Alpha virt. eigenvalues --    0.68556   0.69474   0.72793   0.75319   0.76886
 Alpha virt. eigenvalues --    0.77123   0.79826   0.84585   0.90815   0.95316
 Alpha virt. eigenvalues --    0.97141   1.02114   1.02982   1.06783   1.08287
 Alpha virt. eigenvalues --    1.10322   1.13139   1.17658   1.19943   1.23045
 Alpha virt. eigenvalues --    1.25025   1.28725   1.30574   1.33856   1.34340
 Alpha virt. eigenvalues --    1.36850   1.39368   1.43475   1.44349   1.48068
 Alpha virt. eigenvalues --    1.50360   1.57280   1.66674   1.71068   1.75446
 Alpha virt. eigenvalues --    1.78540   1.80614   1.83964   1.87474   1.89661
 Alpha virt. eigenvalues --    1.91130   1.92495   1.95324   1.98339   2.00077
 Alpha virt. eigenvalues --    2.02894   2.04660   2.07608   2.09127   2.16704
 Alpha virt. eigenvalues --    2.21279   2.25429   2.28821   2.30205   2.33107
 Alpha virt. eigenvalues --    2.34912   2.40224   2.44118   2.46515   2.50635
 Alpha virt. eigenvalues --    2.54018   2.56682   2.58637   2.65406   2.71164
 Alpha virt. eigenvalues --    2.74889   2.76522   2.79984   2.81854   2.85437
 Alpha virt. eigenvalues --    2.93883   2.96796   3.05836   3.08547   3.12672
 Alpha virt. eigenvalues --    3.24176   3.34712   3.41490   3.47620   3.52361
 Alpha virt. eigenvalues --    3.57442   3.74626   4.15496   4.36567   4.46098
 Alpha virt. eigenvalues --    4.58604   4.60092   4.71426
     Molecular Orbital Coefficients:
                           1         2         3         4         5
                           O         O         O         O         O
     Eigenvalues --  -.19342367085704E+02 -.19321695542107E+02 -.14700633454649E+02 -.10400211707957E+02 -.10343205851921E+02
   1 1   C  1S       -.66253404097574E-05 0.42056142750870E-05 -.29781010325052E-04 0.99367556363080E+00 -.25676012158309E-02
   2        2S       0.58370696090208E-04 0.40498443171386E-04 -.13114324602020E-03 0.46831374359281E-01 -.36857109587138E-03
   3        3S       0.66609711052056E-04 -.63678117808357E-04 0.63186917964094E-03 -.22921075231445E-01 0.60666301995961E-02
   4        4S       -.78852812599722E-02 -.20062084377424E-02 0.10831869097322E-02 -.19021048574526E-01 0.22173941708672E-02
   5        5PX      -.16788517911081E-04 0.28676955718776E-04 -.11692265921344E-04 0.12923615083956E-03 -.14298753915899E-03
   6        5PY      0.39637150204107E-04 -.15974125330499E-04 -.19550796168310E-03 -.76684765203789E-03 -.10333240415035E-03
   7        5PZ      -.16585242649988E-04 0.51639025998555E-05 0.15030627887990E-03 0.51116925490978E-03 0.13958548482701E-05
   8        6PX      0.69037883768833E-04 -.15609567207594E-03 0.32752536710483E-05 -.23306545754711E-02 0.20529910814871E-02
   9        6PY      -.14510287361630E-03 -.12675146572912E-04 -.24606820770856E-03 0.16239250427430E-02 0.16927833279973E-02
  10        6PZ      -.10085288327681E-04 -.29727019143336E-05 0.15862696325947E-03 -.19755179209564E-02 0.46861049184671E-03
  11        7PX      -.92444372580719E-03 -.18434650502116E-02 0.27234786835218E-03 -.25726060867710E-02 0.39890227318699E-03
  12        7PY      -.21924359960858E-03 -.52293723079370E-03 0.24613466594965E-03 0.89797567072529E-03 -.32045248472591E-03
  13        7PZ      -.69433599413048E-03 0.90679852619462E-03 0.85538014545151E-05 -.22366002019577E-02 0.71677327342909E-04
  14        8XX      -.63455264613996E-04 -.10042123734042E-04 -.31011437160088E-04 -.71621560784062E-02 -.40483678906946E-03
  15        8YY      -.59520030336361E-04 -.70881614154230E-05 0.13651080947560E-03 -.72975496683821E-02 -.21242112808534E-03
  16        8ZZ      -.43074236817760E-04 0.41120003073551E-05 0.63624726479597E-04 -.71813388527120E-02 -.11949318565356E-03
  17        8XY      -.41443530683620E-04 0.65642582664292E-05 0.18177943032477E-04 -.75094227879925E-05 -.18585419982049E-03
  18        8XZ      0.39504573947742E-04 -.95398285710784E-05 -.20234634858596E-04 -.11078240030987E-03 -.59747905157995E-04
  19        8YZ      0.28657928765936E-04 0.74221774509136E-05 -.14925980871671E-03 0.15327768093856E-03 0.24449106498583E-04
  20 2   C  1S       -.36693047224200E-05 0.43238041764334E-05 0.89482112787799E-05 0.22931408812824E-02 0.99359132798011E+00
  21        2S       -.14120797711366E-04 -.14357005857835E-04 0.69915653812739E-04 -.15925549820583E-03 0.46891369822639E-01
  22        3S       0.19019181245932E-03 -.12224787224133E-03 -.16799299426727E-03 0.55943369180287E-02 -.21008782451286E-01
  23        4S       0.79595777773938E-02 0.21988422163306E-02 -.10807969451692E-02 0.14876587145247E-01 -.13237538864019E-02
  24        5PX      0.54431829812700E-06 -.11366303960023E-04 0.13291897452711E-04 0.92448187465384E-04 -.39911501958493E-03
  25        5PY      0.17699404482862E-04 -.44778223191635E-05 -.33326404359821E-05 -.11554202897303E-05 -.19908812768911E-03
  26        5PZ      -.45430012405985E-05 -.57892572993382E-05 0.85353091846495E-05 0.66619450540058E-04 -.26345766825735E-03
  27        6PX      -.74931289423957E-04 0.43487397706109E-04 0.38349956670313E-04 -.22031003370167E-02 0.15815317684011E-02
  28        6PY      -.12734638645658E-03 -.13858485337305E-03 0.21714089444630E-03 -.13874555138472E-02 0.11219294777789E-02
  29        6PZ      0.11308512347928E-04 0.44590062156762E-04 -.90995503082199E-04 -.22179764800212E-03 -.70681311602103E-03
  30        7PX      -.16307970794354E-02 -.91096300930416E-03 0.21791377793168E-03 -.15388781036789E-02 -.24771404467383E-03
  31        7PY      -.14233978192044E-02 -.85564181980269E-03 0.86985951216131E-04 -.11616933514223E-02 0.36156234498670E-03
  32        7PZ      0.67158395652898E-03 -.81543069795082E-03 -.44399270040865E-04 0.19060979045540E-02 0.90507515294311E-03
  33        8XX      0.18602017002810E-04 0.10395456681791E-04 0.11506196750912E-05 -.42533186976794E-03 -.74167697734675E-02
  34        8YY      -.17982398148457E-04 0.36979925038693E-04 -.24583597642699E-04 -.19538059359677E-03 -.72570428350527E-02
  35        8ZZ      -.78797764598865E-05 0.17936223717242E-04 0.78619815419777E-05 -.12844620323263E-03 -.74898479548082E-02
  36        8XY      0.70577412374321E-06 0.26425455660528E-05 -.29402511904283E-04 -.12314962189087E-03 -.93360665568898E-04
  37        8XZ      0.13258462988807E-04 -.46608628556316E-05 0.14357223768818E-04 -.80246155685445E-04 -.11391393863829E-03
  38        8YZ      0.80869102680818E-05 -.11065085463700E-04 0.13291249141945E-04 -.29760776642924E-04 -.13064820126676E-03
  39 3   N  1S       -.25819049477586E-04 -.26316584379251E-04 0.99317688578312E+00 -.67686908510822E-04 0.46556090080512E-05
  40        2S       0.20815300783134E-03 0.11839438722323E-03 0.32967314470038E-01 0.10506882149142E-03 0.16123937402542E-04
  41        3S       0.35002027774666E-03 0.13014011218228E-03 0.19669805690549E-02 0.16683153252328E-02 -.17157082957713E-02
  42        4S       0.10112855666895E-01 0.48551118107348E-02 -.24838190696093E-03 0.14567524544385E-01 -.53270154541606E-02
  43        5S       0.26570747868076E-04 -.11436222837801E-03 -.27791016205181E-04 0.14759100616005E-02 -.11239321222508E-03
  44        6S       0.96186885845991E-05 -.62587466394521E-06 -.61874494575976E-05 -.23813106842909E-03 0.36194685132809E-04
  45        7PX      -.27402381138376E-03 0.22450857082158E-03 -.43923145581377E-03 0.26512714704295E-04 -.50874174346341E-04
  46        7PY      -.10798781336378E-03 -.19243963023240E-03 -.36231421729969E-03 0.33769900171943E-04 -.42701257603651E-04
  47        7PZ      0.52156696915382E-04 0.39658123912272E-04 0.76148188295549E-04 0.70328169965150E-04 0.53725016790843E-04
  48        8PX      0.24953782458042E-03 -.19360380312489E-04 0.90704182307241E-04 0.14540758077031E-02 0.16481256030287E-02
  49        8PY      0.15125774932188E-03 -.10533847178476E-03 0.17386604790536E-03 0.15840351879525E-02 0.18691762761510E-03
  50        8PZ      0.94565838399067E-05 0.42225990260843E-04 0.16516173506160E-03 -.15464629455726E-02 -.37522409450541E-03
  51        9PX      -.76890603165553E-02 0.64485591096554E-02 -.12932809274934E-03 0.32892975428490E-02 0.10797252912161E-02
  52        9PY      -.10852090729726E-02 -.26445078853213E-02 -.17760961408829E-03 0.57363013137753E-02 0.15060971900316E-02
  53        9PZ      0.95746346519733E-03 0.83750092041978E-04 -.65426015728298E-04 -.38827504798006E-02 -.98954012077819E-03
  54       10PX      0.52207109003971E-04 0.57910990148180E-04 -.43388056373802E-04 -.11790542952595E-03 -.11727629672246E-03
  55       10PY      0.98705135020426E-04 -.62317460065577E-04 -.38731297792765E-04 0.21813813527102E-03 -.28440000334698E-03
  56       10PZ      -.22690681657658E-04 0.63029940864650E-04 0.17852146934982E-04 0.16037362194177E-04 0.10360569149122E-03
  57       11PX      -.31306497683287E-05 -.12847635575291E-04 0.96727995993597E-05 0.29726258016956E-04 0.49401499285634E-04
  58       11PY      -.50794760965480E-05 0.16005878427818E-04 0.42831850426121E-05 -.26635079973696E-04 0.74444272135901E-04
  59       11PZ      -.39466270852578E-05 -.13489891459519E-04 -.38439278767003E-05 -.42001278094801E-04 -.71208409968353E-04
  60       12XX      -.25653564900251E-03 0.88666648875319E-04 -.72178831102644E-02 -.11105499122649E-03 -.13832411901715E-03
  61       12YY      -.83806672966183E-04 0.43240966462754E-04 -.74414453153807E-02 -.28295864689278E-03 0.23663480225537E-04
  62       12ZZ      -.10175572306639E-03 -.52277443008690E-04 -.73947984379904E-02 -.16576422775490E-03 0.13386990480284E-05
  63       12XY      -.73848391847309E-04 -.11596239555442E-03 0.92345038824505E-04 -.44474442940972E-04 -.44698264148991E-04
  64       12XZ      0.47360304972024E-04 0.15909557154743E-04 -.43792285188456E-04 -.22423277795773E-04 0.76619702200105E-04
  65       12YZ      -.54261790700589E-05 -.18541687090373E-04 0.61878673789594E-04 0.30672112622278E-03 -.29644185662978E-04
  66 4   H  1S       0.43084001463631E-04 -.44117058995275E-04 -.45749444800213E-04 -.22284396013985E-04 -.20030194914072E-03
  67        2S       -.50263646205549E-05 0.23506510822567E-03 -.14363550263420E-03 0.21665051506757E-02 -.54500632120992E-03
  68        3PX      -.20531517811581E-05 -.23759184284288E-05 -.15780788531007E-04 -.18762700627442E-03 -.62821012789415E-04
  69        3PY      -.12552219567833E-04 0.43836278698001E-05 0.56547294628511E-04 0.13762738386990E-03 -.49478353265634E-04
  70        3PZ      0.36256855444866E-05 0.22824996002110E-05 -.28993690892779E-04 0.13795604620400E-03 -.29774244887483E-05
  71 5   H  1S       -.95455426826938E-05 0.17636668652954E-06 -.46580734577022E-04 0.88621685127979E-04 -.12126056884504E-03
  72        2S       0.55218377349409E-05 -.49400809897123E-04 -.12718210570780E-03 0.22300090182939E-02 -.77068993732665E-04
  73        3PX      -.16632838345140E-05 0.14272906282064E-05 0.36380042585301E-05 0.51755864108024E-04 0.33985550536717E-04
  74        3PY      -.76326710025918E-05 -.75550331296927E-05 0.34510807632592E-04 -.16321091529766E-03 0.22531037396790E-04
  75        3PZ      0.92059176054345E-05 0.95335975764236E-05 -.45261639544212E-04 -.22773931636237E-03 0.11818985076712E-04
  76 6   O  1S       0.99279905052676E+00 0.41878108726492E-03 -.42881945122108E-04 -.48431427447974E-04 -.37280561141417E-04
  77        2S       0.24567820937142E-01 0.17070844415697E-03 0.17091704057762E-03 -.30979400843014E-03 -.19964309425625E-03
  78        3S       0.15093784632560E-01 -.72801762940333E-03 0.94693766730939E-04 0.14877690677221E-02 0.14812243564783E-02
  79        4S       -.16825238397437E-01 0.42008374337802E-02 -.13322178619385E-03 0.13377182024773E-02 0.39478137523902E-02
  80        5PX      0.12315329701838E-02 -.16251851434886E-04 0.16535825635380E-03 -.53098947101980E-04 -.19370160849180E-04
  81        5PY      0.46389803650059E-03 0.89495145257601E-05 0.64750717477034E-04 -.74129458694851E-04 -.22759453161742E-04
  82        5PZ      -.27698218704083E-03 0.18365490563807E-05 -.41080424841039E-04 0.38817724675375E-04 0.15768471582416E-04
  83        6PX      -.50859753407809E-03 -.17472488421541E-04 0.72066279258342E-06 0.92177555458200E-03 0.98733330123824E-03
  84        6PY      -.20676192189779E-03 -.30814736004920E-04 -.59693185344979E-04 0.41156285523445E-03 0.52336431452538E-03
  85        6PZ      0.91427968197429E-04 -.82485013427239E-05 -.15782177004549E-04 -.21439051832954E-03 -.29705148773641E-03
  86        7PX      -.24697410690817E-02 0.54429057729935E-03 -.13490739991899E-04 -.17771426041470E-03 0.68948772892125E-03
  87        7PY      -.10643924677980E-02 0.79662156158400E-03 0.27052629611095E-04 -.11707553355898E-02 0.16074082980710E-05
  88        7PZ      0.69579582968673E-03 -.21474418389237E-03 0.18330864755285E-04 0.76151728508090E-03 0.23945590609712E-04
  89        8XX      -.81704884941298E-02 -.59549780916058E-05 -.18253564118886E-03 0.23796704072792E-04 0.44299606144001E-04
  90        8YY      -.81530345805466E-02 0.95261643508061E-04 0.16833591625868E-04 -.14672145728531E-03 -.11529219133997E-03
  91        8ZZ      -.81655735355427E-02 0.86099324080103E-04 0.49826932464731E-04 -.19065770237562E-03 -.12017235169975E-03
  92        8XY      -.13572028121487E-04 0.24399124977889E-04 -.95544728127464E-04 0.73878273218249E-04 0.12087629498223E-03
  93        8XZ      -.25497973638361E-05 0.33566269276772E-05 0.56042899334584E-04 -.19660460006734E-04 -.50719573208292E-04
  94        8YZ      -.11626496128237E-04 -.29706234611517E-05 0.33678812540111E-04 -.13739233048636E-03 -.35312306529141E-04
  95 7   O  1S       -.37023120767523E-03 0.99286729213209E+00 -.37609439069718E-04 -.18525639822637E-04 0.15284094800488E-04
  96        2S       0.10128962037399E-03 0.24522096936431E-01 0.68773715308511E-04 -.10467931727600E-03 0.10351017431519E-03
  97        3S       -.55223582647341E-03 0.14275409353713E-01 0.16316529924881E-03 0.77543542626062E-04 -.82688735791011E-03
  98        4S       0.34169333803684E-02 -.13873985279975E-01 0.19592119809267E-04 -.29491605013236E-02 0.21074508909835E-02
  99        5PX      0.28163129092620E-04 -.78632399105967E-03 -.15714847963217E-03 0.25853059249107E-04 -.26969271152776E-04
 100        5PY      -.59065575994306E-05 0.68740385763597E-03 0.13617700802803E-03 -.55782207061670E-04 -.49035576257068E-04
 101        5PZ      -.63177333983540E-06 -.13045920691308E-03 -.27173794796972E-04 0.51594446348135E-04 0.17364151078734E-04
 102        6PX      -.66510554014405E-04 0.51521756696731E-03 -.25197916028311E-03 -.13942956949144E-03 0.93339769835261E-04
 103        6PY      -.22772341784198E-05 -.37671154712349E-03 0.10157731481520E-03 -.13143754643611E-03 -.14321830300985E-03
 104        6PZ      -.17565908441984E-05 0.63212114762020E-04 -.45684451790187E-04 0.28480733880154E-04 0.27056025129344E-04
 105        7PX      -.15685296808931E-04 0.15632113630735E-02 0.12293472066597E-03 -.21234582130183E-03 -.70977991842513E-03
 106        7PY      0.96944848264466E-03 -.19392827368329E-02 0.26658488066286E-04 -.17711372746831E-02 0.25212111425811E-03
 107        7PZ      -.27940367232930E-03 0.43839826289818E-03 0.27792153448802E-04 0.88112307140295E-03 0.27904337725395E-03
 108        8XX      -.30138953421768E-04 -.81302925130472E-02 0.57151940063534E-04 0.33999187327493E-04 0.70391509199623E-04
 109        8YY      0.98703078947878E-04 -.80888642467997E-02 -.52859278369749E-05 -.12914468728904E-03 0.89289352756866E-05
 110        8ZZ      0.53178683728013E-04 -.80089664886662E-02 -.20389820031464E-04 -.89664435069838E-04 -.10985705167195E-04
 111        8XY      0.79952616427449E-05 0.12502566007574E-03 -.57810716958401E-04 -.52619057897247E-04 0.77542805191217E-05
 112        8XZ      0.13173598290816E-04 -.23753155595551E-04 0.18869073508348E-04 -.81289454813405E-04 -.18080409961162E-04
 113        8YZ      -.25056858967538E-04 0.76332291575474E-05 0.20570045263328E-05 -.55113443742776E-04 0.14178687375886E-04
 114 8   C  1S       -.37697509799273E-05 0.53894625707418E-05 0.63506730189980E-05 -.27828171447681E-04 0.10671461023159E-02
 115        2S       -.14749846632455E-04 0.12783096095732E-04 0.11522513117956E-04 -.28177458120411E-04 -.26884216890451E-03
 116        3S       0.10543753936715E-03 -.22667099777449E-03 0.87424448783389E-05 -.30824663510923E-03 0.49004466099840E-02
 117        4S       -.14249805110476E-02 0.10027681486362E-02 0.20655770795454E-03 -.52524318933735E-02 0.20300843616078E-03
 118        5PX      0.34244923641794E-06 0.32305407051884E-05 -.17665216128759E-04 0.54673334965210E-04 -.28340516266275E-05
 119        5PY      0.10040864293173E-06 -.91792263637760E-05 -.11531209454621E-04 -.10404901420890E-04 -.66726351829670E-04
 120        5PZ      -.69226050281954E-05 0.11629508084661E-04 -.78099960758343E-05 0.60941421559678E-04 -.36300018384913E-04
 121        6PX      -.25067148782217E-04 0.14722085463990E-04 0.95725277680111E-04 0.18228226777084E-03 -.77378215805751E-03
 122        6PY      0.28684698920094E-04 0.12772368345389E-03 -.19118404813655E-05 0.20162384472869E-03 -.48848514663698E-03
 123        6PZ      -.36232556238114E-04 -.17336883316913E-04 -.97779640061262E-06 0.28623925030563E-03 -.19024786272108E-02
 124        7PX      0.36001780416863E-03 0.80642734693983E-04 -.29901396849855E-04 0.61220936981262E-03 0.12579471818728E-03
 125        7PY      0.30064470277694E-03 0.13210815466298E-03 -.23490302713882E-04 0.39380425261862E-03 -.83980066192869E-04
 126        7PZ      0.23470042340693E-03 -.43666591308144E-03 -.19908594779690E-04 0.13727468880257E-02 0.47914824147980E-04
 127        8XX      -.45468724739636E-05 0.78245164245945E-05 0.11812267310772E-04 0.13087757644296E-04 -.24723590326676E-03
 128        8YY      -.55647334096369E-05 0.19538624597945E-04 0.26500390978671E-04 -.50997821849962E-04 -.12205706857368E-03
 129        8ZZ      -.71456156520196E-05 0.11159400666018E-04 0.14150987318184E-04 -.43361214655155E-04 -.35688054078790E-03
 130        8XY      -.15647007406158E-06 0.58652039545541E-05 0.50210114506508E-05 0.29368809863476E-04 0.36859835449335E-04
 131        8XZ      -.42792796716260E-05 0.65144597447007E-05 -.11387958486776E-05 -.15131712873697E-04 -.35345800555896E-04
 132        8YZ      0.50848752780799E-05 -.20022182588306E-05 0.67686910258686E-05 -.22083997974564E-04 -.27127780958530E-04
 133 9   H  1S       0.15973307865975E-05 0.21653342616778E-04 0.24808515412342E-04 -.14903572674858E-03 -.67851431933737E-05
 134        2S       0.54825402563071E-04 -.27700680150867E-03 0.37253684363756E-04 -.65231417543280E-03 0.32221412240770E-02
 135        3PX      -.25541600982345E-05 -.14469035559020E-06 0.31589324349857E-06 -.71322613067708E-04 0.14130409626926E-03
 136        3PY      -.12224464723397E-04 -.17865921562606E-04 -.11181725038086E-04 -.27075517421790E-04 -.20768202305097E-03
 137        3PZ      0.68414583014897E-05 0.52915582511951E-05 0.79103968220647E-05 -.42352901719257E-05 -.57800696557687E-04
 138 10  H  1S       0.24526831035275E-04 -.56885217595313E-05 -.73651502827951E-05 -.15548343739671E-03 -.14465864242574E-03
 139        2S       -.90660968634447E-04 0.13607173081967E-03 -.67678400577806E-04 -.51050672673399E-03 0.30598803974510E-02
 140        3PX      0.24275191487244E-05 -.28248265614630E-05 -.45937586113604E-05 0.91015646847489E-05 -.79675777835012E-04
 141        3PY      0.19071531639052E-05 0.56266191628148E-06 -.66654694512979E-05 0.11354313485305E-04 0.25590086779734E-03
 142        3PZ      0.71937071470633E-05 -.57010364186890E-07 -.63046513786604E-07 0.15546756666803E-06 -.15146242923130E-03
 143 11  H  1S       -.25393411459374E-04 0.32043848686132E-04 0.13834709291728E-04 0.93077433469299E-04 -.15879970178076E-03
 144        2S       0.31050182296483E-03 -.14393428660526E-04 -.30157177447937E-04 -.74546887739759E-03 -.53967451502375E-03
 145        3PX      -.71601118830787E-06 -.15604410372966E-05 -.45608314157696E-05 0.78863931010015E-04 0.28611407510022E-04
 146        3PY      0.55444152202775E-05 -.33599180757837E-04 -.46192031188834E-05 0.21523068453118E-04 0.12211717364311E-04
 147        3PZ      -.74088010878463E-05 -.15860774537164E-04 0.46073100428897E-05 0.62184150514793E-04 0.29427712805302E-04
 148 12  H  1S       0.29917227556582E-05 0.29695014210386E-05 -.62218199088273E-05 -.42187219556437E-04 -.19487060203717E-03
 149        2S       -.65315018285664E-04 -.65527089248572E-04 -.68446517726048E-04 0.14197918535276E-03 -.40697384657172E-03
 150        3PX      0.23614322406767E-05 0.60419562398563E-05 0.35423374888817E-05 -.10560000942105E-04 0.29231860782502E-04
 151        3PY      0.95929857657751E-06 0.24025614356008E-05 0.10547424080228E-04 -.11421524346632E-04 -.23836672416978E-05
 152        3PZ      0.17000165567364E-06 0.19703033956073E-05 -.13060659937678E-06 -.37752752001876E-04 0.45711642454449E-04
 153 13  H  1S       -.51592010390331E-05 -.96203195829056E-06 0.22012818542021E-04 -.80644030414004E-04 -.10184570775957E-03
 154        2S       -.36663179085571E-05 -.41589903982204E-04 0.40179417189961E-04 0.47789115532608E-04 -.49858678633760E-03
 155        3PX      0.14386118102657E-05 0.21161175020914E-05 -.79566705340968E-05 0.28910485907488E-04 0.11502232096775E-04
 156        3PY      -.34119406820845E-06 0.24135573915875E-05 -.73178032027418E-05 0.53434916857491E-06 -.55256332878970E-04
 157        3PZ      0.54505999582925E-05 0.91584034837517E-06 -.33413461623495E-05 0.96238112007332E-05 -.15685480154929E-03
                           6         7         8         9        10
                           O         O         O         O         O
     Eigenvalues --  -.10305823865692E+02 -.12833555125037E+01 -.11028280760794E+01 -.94928986754557E+00 -.84996582068776E+00
   1 1   C  1S       0.28316069284969E-04 -.27560746712746E-01 -.98525355882053E-02 -.15000659834245E+00 0.39383297167848E-01
   2        2S       0.48455367426477E-04 0.51632740788156E-01 0.18482131048694E-01 0.28948930860384E+00 -.79924903961230E-01
   3        3S       -.13085396989867E-02 0.40193111602755E-02 0.66224911498544E-02 0.24483728976353E+00 -.73229190794662E-01
   4        4S       -.20644010226645E-01 0.13966705508963E-01 0.11584596585048E+00 0.14855417699807E+00 -.75081353985282E-01
   5        5PX      -.10537575164010E-03 -.55447010728736E-02 0.19253774947296E-01 0.41328827216464E-01 0.69681824959806E-01
   6        5PY      -.39160380396593E-04 -.33730895429475E-01 -.10047278751336E-01 -.31405637625154E-01 0.10780888955988E+00
   7        5PZ      -.64380337315939E-04 0.25719570123006E-01 0.48239655374121E-02 0.43800026066253E-01 -.40401577608924E-01
   8        6PX      -.15385629591236E-03 0.50546775069007E-03 0.10430500657919E-01 0.98400072204244E-02 0.11167556368026E-01
   9        6PY      0.18748321055566E-03 0.31387146411630E-02 0.65131673515541E-03 -.28650876081998E-02 0.10268446374160E-01
  10        6PZ      -.34333524712747E-03 -.65016053470316E-02 -.65231347685535E-02 0.96234124580032E-02 -.37122337837427E-02
  11        7PX      -.46207285927097E-02 -.85229334157064E-03 0.52273049910657E-02 0.17258309157957E-01 -.46656599996749E-02
  12        7PY      -.18061998674851E-02 -.11233410050665E-01 -.15924600907106E-02 -.23667507642016E-01 0.23732945486227E-01
  13        7PZ      -.19088563769248E-02 0.97020509170904E-02 0.20679892172622E-01 0.25636189578584E-01 -.11789046847137E-01
  14        8XX      -.39483752781128E-04 -.24998427916776E-02 -.11854230608190E-02 -.28198030927540E-02 0.94352190895008E-02
  15        8YY      -.65138659586469E-04 0.60911123524896E-02 0.19014857416220E-02 0.10824912793849E-03 -.50288265012126E-02
  16        8ZZ      0.14784458035884E-04 0.20987301908302E-02 -.45661534807136E-03 -.28881537913811E-02 -.33095753099774E-02
  17        8XY      0.60728335028399E-04 0.13627749096405E-02 -.36479103754702E-02 0.43305845481173E-02 0.42179854597398E-02
  18        8XZ      -.29128977552480E-04 -.11177881198409E-02 0.34479935703313E-02 -.38797060232753E-03 0.21641091072476E-02
  19        8YZ      -.15252598741241E-05 -.72091863596060E-02 -.13943564228120E-02 -.74561258573739E-02 0.90231125422206E-02
  20 2   C  1S       -.13418639996879E-02 -.41641547449539E-02 -.68327692354316E-02 -.99438688240105E-01 -.10363835527365E+00
  21        2S       -.41629247031893E-03 0.73879986901112E-02 0.11552571375746E-01 0.18711919215774E+00 0.19373833384814E+00
  22        3S       0.55311387102121E-02 0.80492596073576E-02 0.36032278513501E-02 0.14059413765484E+00 0.19027429054528E+00
  23        4S       0.25062783096491E-01 0.25431711411055E-01 -.81166943826133E-01 -.99409638971561E-01 0.72408143923375E-02
  24        5PX      -.22665435897801E-04 -.51734719539021E-02 -.42698522185485E-02 -.60394086539725E-01 0.23946537927342E-01
  25        5PY      0.41696876437116E-04 -.51366594814914E-02 -.62120601575285E-02 -.37550724384515E-01 0.32576005388200E-01
  26        5PZ      0.67802182538829E-04 0.10052200487960E-02 0.59386953904598E-03 0.10906003849599E-02 0.32335780132723E-01
  27        6PX      0.11349245143314E-02 -.37859799995707E-02 0.65107223005170E-03 -.78557927003528E-02 -.21100238827322E-02
  28        6PY      0.50845419991450E-03 -.35566533391676E-02 -.24208242942245E-02 -.13848060778591E-02 0.79470213236820E-02
  29        6PZ      0.22502724313399E-02 0.36863723236858E-02 0.74753721381402E-02 -.37227692464559E-02 0.50354526493991E-02
  30        7PX      -.38945598908831E-02 -.77876982926427E-02 0.17510548294315E-01 0.76590801525475E-02 -.21220155643634E-02
  31        7PY      -.29537251194892E-02 -.43609394601799E-02 0.10978252138839E-01 0.18769064794072E-01 -.12557480307483E-01
  32        7PZ      0.24357887674251E-02 0.37521288327007E-03 -.11841434260742E-01 -.18742317317652E-01 -.68780655768363E-02
  33        8XX      -.17457312832446E-03 0.85301604515788E-03 0.64666436237656E-04 0.30162940788172E-02 -.54587562996115E-02
  34        8YY      -.15971048517810E-03 0.87743368232782E-03 0.22374293676816E-03 -.24512557596288E-02 -.48345478008439E-02
  35        8ZZ      -.25675805470694E-03 -.22248718250642E-03 -.51473750251657E-03 -.25930426894237E-02 0.52574202653124E-02
  36        8XY      -.26999444760092E-04 0.12409428003099E-02 0.78568803054023E-03 0.70063880753639E-02 -.88089172663187E-03
  37        8XZ      -.84769322451390E-04 -.27129066223728E-03 0.44486596090675E-04 0.83906322166647E-03 0.23165132700356E-02
  38        8YZ      -.16593529383876E-04 -.30063413203872E-03 -.20961987215190E-03 0.10168284078311E-02 0.24661579280874E-02
  39 3   N  1S       -.50530729321365E-05 -.15410211859033E+00 -.31229813156509E-01 -.50051972054860E-01 0.64687250242214E-01
  40        2S       0.60492014264853E-05 0.33138633461946E+00 0.68356166527512E-01 0.11085232011993E+00 -.14880019100668E+00
  41        3S       -.28483944279314E-04 0.25644073119858E+00 0.74027517038670E-01 0.14883706480472E+00 -.20084992918679E+00
  42        4S       0.54917590778746E-02 0.14961430090067E+00 -.17100513423158E-01 -.24015565918587E+00 0.17096359703539E+00
  43        5S       0.81945288154469E-04 -.22855823326485E-01 -.12331722591965E-01 -.40573166740310E-02 0.37205911551829E-02
  44        6S       0.28940161730876E-04 0.46335436579498E-02 0.16371037833772E-02 0.60636734859832E-03 -.10011249294187E-02
  45        7PX      -.22273998201458E-04 -.85362762132281E-01 0.25203665896828E+00 0.26889127598236E-01 -.18904535612340E-01
  46        7PY      -.59014230136372E-04 -.61995368501004E-01 -.49748567980772E-01 0.18094745747571E+00 -.12133147954222E+00
  47        7PZ      -.34071695334949E-04 0.20958413410586E-01 -.14762050947416E-01 -.10972731790471E+00 0.92361825686130E-01
  48        8PX      0.60033964551942E-03 -.13069750817652E-01 0.47781307123241E-01 0.19043610290803E-02 -.18434260926790E-02
  49        8PY      0.15878120941010E-03 0.15640357863924E-01 -.48620202983432E-02 0.56851589082603E-01 -.46891142668556E-01
  50        8PZ      -.67699257280049E-04 -.10744124945880E-01 -.63897640578233E-02 -.36822151580610E-01 0.41122115096237E-01
  51        9PX      0.18517805969682E-02 -.66793691641732E-01 0.14768010665405E+00 -.96643998277282E-02 -.10904363206676E-01
  52        9PY      0.16075489539722E-02 -.68417699991905E-01 -.49686678277890E-01 -.54798371856363E-02 -.89210890725837E-03
  53        9PZ      -.60493933398079E-03 0.34684104523783E-01 0.30694779486009E-02 0.20995204848021E-01 -.11405876381533E-01
  54       10PX      -.20946143952614E-03 0.33642154276993E-02 -.96933176143804E-02 0.17504884728564E-02 0.28534655221925E-03
  55       10PY      0.11410664269070E-03 0.38175192280205E-02 -.95681137852659E-04 -.12258656771951E-02 0.38939536275232E-03
  56       10PZ      0.24006718043657E-03 -.18497844618518E-02 0.97587269741815E-03 -.53183280360807E-03 -.63586042355342E-03
  57       11PX      0.82681202230309E-04 -.88351169900947E-03 0.20405493538874E-02 -.52956034583761E-03 -.17251854273456E-03
  58       11PY      0.19896712624521E-04 -.82591906497330E-03 -.37877253469269E-03 0.20985741595676E-03 -.34430091599808E-03
  59       11PZ      -.46321754125476E-04 0.32620125225089E-03 -.17120925918168E-03 0.33600992939747E-03 0.19923386745028E-03
  60       12XX      -.54419484797412E-04 0.13847098171874E-01 -.64263191754056E-02 -.12004501910247E-01 0.10094201016382E-01
  61       12YY      -.11612652278018E-04 -.82826489843596E-02 0.82039465390129E-02 0.33906806170543E-02 0.86796391103630E-03
  62       12ZZ      -.17740695155117E-04 -.14548498714277E-01 -.15712051763813E-02 0.33031084386571E-02 -.71844685638569E-03
  63       12XY      -.75424780572960E-04 0.29972267610644E-02 -.23342486368246E-01 0.15529667541313E-02 0.30429078628726E-02
  64       12XZ      0.22018108240423E-04 -.46835151434314E-02 0.72822168674486E-02 0.65911302245702E-03 -.20793143699347E-02
  65       12YZ      -.27231097593426E-04 -.52744629775036E-02 -.15354883154867E-02 -.78526749020991E-02 0.47302012834991E-02
  66 4   H  1S       0.34247505665216E-04 0.11314775747135E-01 -.20245340834061E-02 0.68037735260996E-01 -.28213886746616E-01
  67        2S       0.23013091947072E-04 0.89468039338815E-02 0.78792465114209E-02 0.12357066390263E-01 -.96949410618983E-02
  68        3PX      -.11404602104385E-04 0.10832806389107E-02 0.71446959414479E-03 0.65392473306079E-02 -.15510479124216E-02
  69        3PY      -.27146339871023E-04 -.12373275020511E-02 0.24189384520188E-03 -.30540004333906E-02 0.22073720345633E-02
  70        3PZ      -.25447908636811E-04 0.70480426217797E-04 -.25950008660109E-03 -.16178716245671E-02 0.45078410362611E-03
  71 5   H  1S       0.72609365022456E-05 0.88276645142604E-02 0.41356431929948E-02 0.72704715804516E-01 -.28582199132040E-01
  72        2S       0.12686428359798E-04 0.53269030843216E-02 -.19704341868646E-02 0.20347284123926E-01 -.14221907888659E-01
  73        3PX      0.19314172490554E-04 0.63563123965250E-04 0.45986686253980E-04 0.10237261547290E-02 0.58663853763598E-03
  74        3PY      0.22879359075976E-04 0.11109313437488E-03 -.24160616690030E-04 0.30185019102957E-02 0.21399460753574E-03
  75        3PZ      0.15601554706736E-04 0.15989897935084E-02 0.50228933670146E-03 0.71368074826011E-02 -.29692511642612E-02
  76 6   O  1S       0.48722150067579E-05 -.13863174169314E+00 0.11911297496954E+00 0.54594348783938E-01 -.56488538109666E-01
  77        2S       0.53234401995201E-05 0.30036818047246E+00 -.26104472769316E+00 -.12250414407901E+00 0.12763053776442E+00
  78        3S       0.10847299978706E-03 0.28731368023396E+00 -.29237436179247E+00 -.15660188356810E+00 0.17599556796487E+00
  79        4S       0.11117557237297E-02 -.20593947190884E+00 0.18555680776561E+00 0.65145494549311E-01 -.65661275867746E-01
  80        5PX      0.11297649007071E-04 0.13328344553990E+00 -.59390700525764E-01 -.16233689835765E-01 -.18216087781767E-01
  81        5PY      0.21708973870037E-04 0.45195777709726E-01 -.39094598165761E-01 0.26480742927669E-01 -.34349341977996E-01
  82        5PZ      0.17781517783168E-04 -.31666878909716E-01 0.19984028520016E-01 -.16165528267605E-01 0.26303269312764E-01
  83        6PX      0.20928574677765E-03 0.51274723496523E-01 -.27023818561977E-01 -.16442121591656E-01 0.12923132796208E-02
  84        6PY      -.11786661945131E-04 0.14809167324620E-01 -.22496072874285E-01 0.71360974627877E-02 -.11586435023443E-01
  85        6PZ      -.13782322590450E-03 -.11294497436260E-01 0.11426282927102E-01 -.30273138209691E-02 0.81432586310026E-02
  86        7PX      0.15322486584268E-03 -.55051736502499E-01 0.39376172376566E-01 0.20786602297139E-01 -.17499058653325E-01
  87        7PY      -.16877356084967E-04 -.11806624175140E-01 0.29231514808322E-01 0.52916329899992E-02 -.56426794655194E-02
  88        7PZ      0.18462059074102E-03 0.96336672436182E-02 -.14331779976697E-01 -.72722219344715E-02 0.49021941434972E-02
  89        8XX      0.71705390571629E-04 0.14442275965493E-01 0.18201582112143E-02 -.18941494143470E-02 -.23299351060146E-02
  90        8YY      0.86671370275293E-05 -.94379089411860E-02 0.50953529900984E-02 0.51336951772744E-02 -.38847918960589E-02
  91        8ZZ      0.41232445293773E-05 -.86498056830831E-02 0.63315713806540E-02 0.28245620100719E-02 -.20115140530397E-02
  92        8XY      0.37169423252804E-05 0.99028919891442E-02 -.75390543588920E-02 0.29414017586822E-02 -.38563999878580E-02
  93        8XZ      -.26210987989882E-04 -.65238278284084E-02 0.31117970660860E-02 -.17610657566583E-02 0.29909438463118E-02
  94        8YZ      -.14126976360192E-04 -.90205810707694E-03 0.12041341266914E-02 -.24257095315043E-02 0.27677684705806E-02
  95 7   O  1S       0.12210245197393E-05 -.71920598369489E-01 -.17157732388003E+00 0.62515934133520E-01 -.42170486389717E-01
  96        2S       0.12923601834521E-04 0.15505836864454E+00 0.37655353551358E+00 -.13956404484867E+00 0.94651595725197E-01
  97        3S       0.72420562233224E-04 0.14833165112237E+00 0.41025806975736E+00 -.17111694504521E+00 0.12760794537557E+00
  98        4S       -.30584161598290E-02 -.58128621716408E-01 -.22383167178486E+00 0.82943867152521E-01 -.40008749917965E-01
  99        5PX      -.17042126951993E-04 -.62266086975061E-01 -.76495261360520E-01 0.19795207399693E-01 0.10512238143848E-01
 100        5PY      0.33941494375607E-04 0.43981176647853E-01 0.76352905957654E-01 0.11150499277769E-01 -.23203144104208E-01
 101        5PZ      -.20478336522509E-04 -.85878441896601E-02 -.17976223991891E-01 -.11917694074843E-01 0.16035278520848E-01
 102        6PX      0.18220370002220E-03 -.31728088671075E-01 -.38486004918137E-01 0.15799367414776E-01 -.18354190466400E-02
 103        6PY      -.29791993706730E-03 0.19827737957974E-01 0.40948156278844E-01 -.14448644217968E-02 -.43168540977013E-02
 104        6PZ      0.10893293584668E-03 -.25230236830705E-02 -.99604008908002E-02 -.22713634537220E-02 0.46934039075554E-02
 105        7PX      -.10267569483784E-03 0.28595654092466E-01 0.46481983356833E-01 -.17898883999933E-01 0.11300172234076E-01
 106        7PY      -.13511477185551E-02 -.59092780902988E-02 -.50176374612319E-01 0.20137036139592E-01 -.82968183470895E-02
 107        7PZ      0.12589043908342E-03 -.24634919791076E-02 0.11343757705766E-01 -.78611914047971E-02 0.38381969553607E-02
 108        8XX      0.33212714759491E-04 0.82871796701759E-02 -.84743575664495E-03 -.18882964638586E-02 -.41834070448392E-03
 109        8YY      -.76945286310164E-04 0.33571072331569E-03 -.25544381048392E-03 0.50222859333470E-02 -.37021656485511E-02
 110        8ZZ      0.35972785568094E-04 -.54148349520831E-02 -.10022667987882E-01 0.32488409911828E-02 -.15488239380834E-02
 111        8XY      0.28375546393525E-04 -.12028426427335E-01 -.14446587833764E-01 0.16379356379077E-02 0.17752104543781E-02
 112        8XZ      -.18203029117094E-05 0.22782502739171E-02 0.36819135303374E-02 0.71852714608694E-03 -.13701265302335E-02
 113        8YZ      0.12516346040072E-04 -.63744602187806E-03 -.15267826077090E-02 -.18919079428841E-02 0.19353274385032E-02
 114 8   C  1S       0.99339692857861E+00 -.10899192363585E-02 -.23136165071452E-02 -.43320414937615E-01 -.14133115738260E+00
 115        2S       0.47935510235081E-01 0.97065483333500E-03 0.46040347634243E-02 0.77363415493084E-01 0.26264865099385E+00
 116        3S       -.20708848834473E-01 0.92495404541149E-03 -.57987676331935E-02 0.69315620427967E-01 0.24304205141838E+00
 117        4S       -.70199343291911E-02 -.35132277215216E-02 0.14106154569504E-01 0.36508985863913E-01 0.22241096963022E-01
 118        5PX      -.38535744719369E-03 -.58763290214009E-03 -.81503724253813E-03 -.19288330428193E-01 -.28786978983188E-01
 119        5PY      0.18953603543441E-03 -.67276974777303E-03 -.15519714134332E-02 -.58179835428267E-02 0.15268202767944E-01
 120        5PZ      -.10177506938925E-03 -.35359116495784E-03 -.81960405197117E-03 -.22857334466613E-01 -.22337936014176E-01
 121        6PX      0.19841578760332E-02 -.17609050724864E-02 -.13549134111983E-02 -.92097562607716E-02 -.11801713052264E-01
 122        6PY      -.19048024018694E-04 -.29567701652712E-02 -.80305925760841E-03 -.60544050576855E-02 0.47347623430486E-02
 123        6PZ      0.17944559695140E-02 -.18733225604238E-02 -.39739748608975E-04 -.56172016224604E-02 -.75270945446499E-02
 124        7PX      0.84526812833449E-03 0.19053255932677E-02 -.10651389713446E-02 -.34806298461210E-02 -.20389490430347E-02
 125        7PY      0.51347395842869E-03 0.54599638126948E-03 -.62450452639668E-03 -.70988482798202E-02 0.35140239638269E-02
 126        7PZ      0.13051250064015E-02 0.64265315073739E-03 -.25235198972405E-02 -.73334413799166E-02 -.39267287652529E-02
 127        8XX      -.76436319807247E-02 -.12445729667090E-03 -.16605944741075E-03 -.76429077639994E-03 -.37484444384316E-02
 128        8YY      -.75895700104764E-02 0.71979345376177E-04 0.10442008747165E-03 -.16726966612582E-02 -.45196927396854E-02
 129        8ZZ      -.81774498199300E-02 -.84050029597116E-04 0.34960646171628E-04 0.19246769116162E-02 -.87836924671922E-03
 130        8XY      0.31328013110822E-04 0.29613885198879E-03 0.12413822582518E-03 0.10075852593722E-02 0.45212581164828E-03
 131        8XZ      -.16336987221249E-03 0.15001789987883E-03 0.20919513002207E-03 0.25648799260319E-02 0.18728975175396E-02
 132        8YZ      -.19282464372542E-03 0.13501463816017E-03 0.60642985039878E-04 0.16386334630629E-02 0.52854001689565E-03
 133 9   H  1S       -.13093817081999E-03 0.10311249399688E-02 0.38281919784700E-02 0.47123966189484E-01 0.56950722912073E-01
 134        2S       -.15196274808086E-02 0.68072521354063E-02 -.50152288654779E-03 0.11626449870186E-01 0.12435730368429E-01
 135        3PX      -.24798208854731E-05 -.44866726443026E-03 -.51080276298380E-03 -.41981296918578E-02 -.31996741389658E-02
 136        3PY      -.40656150175432E-04 -.16931338376314E-03 0.24120018700603E-04 0.22273284095390E-02 0.36390882933936E-02
 137        3PZ      -.11474048117634E-03 0.33106849663001E-03 0.25515143313554E-03 0.23941926806278E-02 0.27515461240262E-02
 138 10  H  1S       -.16678771987988E-03 0.10094515651164E-02 0.19462078259190E-02 0.48034258662796E-01 0.68823745559673E-01
 139        2S       -.68762111017433E-03 0.69345469233199E-03 0.42365576264554E-02 0.41975454551966E-02 0.17429496901143E-01
 140        3PX      -.39256336023787E-04 0.12799043900367E-03 0.77894016810811E-04 -.34511581601842E-03 0.55487849018439E-03
 141        3PY      -.21597939140491E-04 0.26459718776096E-04 -.37777366588985E-03 -.41833267026236E-02 -.46687643705457E-02
 142        3PZ      -.58798457430863E-04 -.11845322976871E-04 0.10245052045980E-03 0.28637568221335E-02 0.39667154350635E-02
 143 11  H  1S       -.18860944250192E-03 0.87990225971905E-03 0.28250987002107E-02 0.21950642726101E-01 0.81052134315639E-01
 144        2S       0.31262406751524E-02 0.39672720789680E-02 0.19970697937128E-02 0.13066143852669E-02 0.17694581405963E-01
 145        3PX      -.17199539980349E-04 -.28118255932609E-03 -.33873222117026E-03 -.67946439362987E-03 -.11885678268689E-02
 146        3PY      -.21687442574149E-03 -.29495338380943E-03 -.48137846290802E-03 0.17810499373220E-02 0.68128018201924E-02
 147        3PZ      0.73436175420142E-04 -.29334857995438E-03 -.52035745480780E-03 -.14847421030200E-02 -.42831135093940E-02
 148 12  H  1S       -.31316834084622E-03 0.28358302720746E-03 0.10062121259601E-02 0.21362856360518E-01 0.96087223422715E-01
 149        2S       0.34283487035761E-02 0.20625714939567E-02 0.23901277983870E-02 0.51423510424245E-02 0.21065261455059E-01
 150        3PX      0.12335392240386E-03 -.37970051539592E-04 -.10904309375430E-03 -.16429868459594E-02 -.64912855277625E-02
 151        3PY      0.16991749877644E-03 -.16264698570704E-04 -.14437394012923E-03 -.14659169602686E-02 -.58551334144157E-02
 152        3PZ      -.79224367458549E-04 0.48839553576116E-04 0.28415349986470E-04 -.11696108514661E-03 -.51211686638749E-04
 153 13  H  1S       -.15366839518278E-03 0.36297534402948E-03 0.12027797620884E-02 0.32232778904601E-01 0.11258777663535E+00
 154        2S       0.48562928481615E-02 0.23985443564524E-02 0.15740792330794E-02 0.38283476926609E-02 0.17166786363793E-01
 155        3PX      -.15468047012194E-03 0.16931065147102E-03 0.21770595862544E-03 0.19841765454367E-02 0.79243954548213E-02
 156        3PY      0.47205160329426E-04 -.13453218344492E-03 -.59511340259503E-04 -.15999601211935E-02 -.38331658176400E-02
 157        3PZ      0.22070252180187E-05 -.37999301047401E-04 -.47530996849583E-04 -.14907400717799E-02 -.33851256674653E-02
                          11        12        13        14        15
                           O         O         O         O         O
     Eigenvalues --  -.77618292882898E+00 -.69320653227678E+00 -.62204125547607E+00 -.61526403284631E+00 -.59548628209896E+00
   1 1   C  1S       0.50405769637579E-01 0.80961063862261E-01 0.73607856257399E-02 0.31507729687340E-01 0.52952088667286E-01
   2        2S       -.98099331239238E-01 -.15954081407218E+00 -.12149891750135E-01 -.61097452680649E-01 -.10823457755104E+00
   3        3S       -.11253765460576E+00 -.22355387093852E+00 -.30519727703502E-01 -.10189980879520E+00 -.17476385460108E+00
   4        4S       0.11830677833079E+00 0.13905637352878E+00 0.93693544446930E-01 -.54542485309199E-01 -.54986523673548E-01
   5        5PX      -.81922542876431E-01 0.12996937026030E+00 0.87509971375131E-02 0.15317116079751E+00 -.46639863112224E-01
   6        5PY      -.11407941691008E+00 0.11216115271428E-01 0.12071529444780E+00 -.16421099041198E+00 -.14765856489397E+00
   7        5PZ      0.96109075060580E-01 0.35236696735762E-01 0.22563363862012E+00 0.63623247298092E-01 0.10508690658207E+00
   8        6PX      -.16400628557385E-01 0.46373628307072E-01 -.14800205108527E-02 0.65013457827475E-01 -.17915126079813E-01
   9        6PY      -.11573036800567E-01 0.12439937306887E-01 0.64739388810829E-01 -.66321786079556E-01 -.53593981111493E-01
  10        6PZ      0.26011554352884E-01 0.78987251721429E-02 0.10430588537351E+00 0.14346624535363E-01 0.29328805766217E-01
  11        7PX      0.20537761365562E-01 0.43868086028586E-01 0.29024961246616E-01 0.11589186709582E-01 -.42089523057365E-01
[...]
  99        5PX      0.70378377733927E-01 0.57646847059975E-02
 100        5PY      -.69772052548104E-01 0.65744941894230E-02
 101        5PZ      0.67919947085761E-02 -.51124941859790E-04
 102        6PX      -.21690196235101E+00 -.86470720099000E-01
 103        6PY      0.46212644764417E+00 0.48416765978763E-01
 104        6PZ      -.11560128243011E+00 0.17491458424566E-02
 105        7PX      0.91229409673115E+00 0.17870247162249E+00
 106        7PY      -.13754958977259E+01 -.40298484824519E+00
 107        7PZ      0.30096349046624E+00 0.82569525139907E-01
 108        8XX      -.12214534339621E+01 -.48477077268734E-01
 109        8YY      -.11468668086101E+01 -.10073793017285E+00
 110        8ZZ      -.12213255018196E+01 -.10471844653938E+00
 111        8XY      -.36418718173460E-01 -.50583636915872E-01
 112        8XZ      0.28834791030144E-01 -.99318615726931E-02
 113        8YZ      -.18905967188476E-01 -.12703738466176E-01
 114 8   C  1S       0.11278923815674E+00 0.25440347087601E+00
 115        2S       -.49699193627264E+00 -.12170966786907E+01
 116        3S       -.10548709881049E+01 -.21327299816926E+01
 117        4S       0.89214882620315E+00 -.41705832042496E+00
 118        5PX      -.12414002945375E-01 -.29083164815110E-01
 119        5PY      0.25771903396270E-01 0.63740293495314E-01
 120        5PZ      0.52566799519596E-01 0.62978969283387E-01
 121        6PX      0.76313376540803E-02 0.21257499486982E+00
 122        6PY      -.25708253018983E-01 0.71668820437827E-01
 123        6PZ      0.13296797311497E+00 0.37028838030755E+00
 124        7PX      -.14439058526430E+00 0.54218795770608E-01
 125        7PY      -.96605918755147E-01 0.19744556295613E-01
 126        7PZ      -.22726952972720E+00 0.77644732462168E-01
 127        8XX      0.44061156298943E+00 0.10495997377664E+01
 128        8YY      0.45368334661382E+00 0.10141661290969E+01
 129        8ZZ      0.40208243052341E+00 0.95925498581134E+00
 130        8XY      -.27580711163077E-01 0.17711698267155E-01
 131        8XZ      -.74342893815606E-02 -.34946998359276E-02
 132        8YZ      -.49538730120299E-01 -.36512197786057E-01
 133 9   H  1S       0.28518281784983E-01 0.73109349753800E-01
 134        2S       -.19510267733947E+00 -.41123178000662E+00
 135        3PX      0.93188380747429E-02 -.15670197059937E+00
 136        3PY      0.37451813860246E-01 0.11337783183237E+00
 137        3PZ      -.21487813221155E-01 0.52592557873238E-01
 138 10  H  1S       0.13618442456599E-01 0.11010831148475E+00
 139        2S       0.16577280904154E+00 -.30880887263128E+00
 140        3PX      0.15577814605720E-01 0.18166789946016E-01
 141        3PY      -.27989427062474E-01 -.18741455338094E+00
 142        3PZ      -.83127481705546E-02 0.10368680841010E+00
 143 11  H  1S       -.54807374670455E-01 -.67651139280712E-01
 144        2S       0.86923578712437E-01 0.20246505287842E+00
 145        3PX      -.21851382474281E-01 0.27309962347690E-01
 146        3PY      -.11421846369466E+00 -.12445314654673E+00
 147        3PZ      0.12897731883737E-01 0.82225649319238E-01
 148 12  H  1S       -.24893722240891E-01 -.12165237346542E+00
 149        2S       0.22121170819622E+00 0.31138522796250E+00
 150        3PX      0.31433532766714E-01 0.10273744308036E+00
 151        3PY      0.28169965883545E-01 0.11507941220908E+00
 152        3PZ      -.26354478877199E-02 -.21122706984620E-01
 153 13  H  1S       -.76219062494316E-01 -.15469634469681E+00
 154        2S       0.17395592848488E+00 0.39995188134395E+00
 155        3PX      -.64199030924678E-01 -.11954819140506E+00
 156        3PY      0.45529193551675E-01 0.79932491081346E-01
 157        3PZ      0.29208441609542E-01 0.93269668643015E-01
          Condensed to atoms (all electrons):
              1          2          3          4          5          6
     1  C    5.745584  -0.073999   0.097030   0.405538   0.362758  -0.127451
     2  C   -0.073999   5.549332  -0.061306  -0.044570  -0.013454   0.043952
     3  N    0.097030  -0.061306   6.410082  -0.038525  -0.027418   0.351477
     4  H    0.405538  -0.044570  -0.038525   0.502371  -0.018156  -0.000788
     5  H    0.362758  -0.013454  -0.027418  -0.018156   0.500032  -0.007696
     6  O   -0.127451   0.043952   0.351477  -0.000788  -0.007696   7.806355
     7  O   -0.070296   0.039066   0.380658  -0.000009  -0.000120  -0.078137
     8  C   -0.003622   0.213543  -0.002059  -0.003386   0.004732  -0.003508
     9  H   -0.025413   0.368977  -0.005254   0.003383  -0.006601  -0.000337
    10  H   -0.029154   0.370679   0.006292  -0.003858  -0.000411  -0.000275
    11  H   -0.006885  -0.034742   0.007679  -0.000126  -0.000035  -0.000172
    12  H    0.015824  -0.037948  -0.003134  -0.000004  -0.000068   0.000117
    13  H   -0.006187  -0.074261   0.004633   0.002055   0.000014  -0.000716
              7          8          9         10         11         12
     1  C   -0.070296  -0.003622  -0.025413  -0.029154  -0.006885   0.015824
     2  C    0.039066   0.213543   0.368977   0.370679  -0.034742  -0.037948
     3  N    0.380658  -0.002059  -0.005254   0.006292   0.007679  -0.003134
     4  H   -0.000009  -0.003386   0.003383  -0.003858  -0.000126  -0.000004
     5  H   -0.000120   0.004732  -0.006601  -0.000411  -0.000035  -0.000068
     6  O   -0.078137  -0.003508  -0.000337  -0.000275  -0.000172   0.000117
     7  O    7.881926  -0.016342  -0.003183   0.000805   0.002105   0.000401
     8  C   -0.016342   5.119010  -0.007966  -0.015747   0.409701   0.404979
     9  H   -0.003183  -0.007966   0.536130  -0.036471  -0.002652  -0.001139
    10  H    0.000805  -0.015747  -0.036471   0.541847   0.002057  -0.001691
    11  H    0.002105   0.409701  -0.002652   0.002057   0.470723  -0.011397
    12  H    0.000401   0.404979  -0.001139  -0.001691  -0.011397   0.491413
    13  H   -0.001760   0.421368   0.004074  -0.002769  -0.032819  -0.032859
             13
     1  C   -0.006187
     2  C   -0.074261
     3  N    0.004633
     4  H    0.002055
     5  H    0.000014
     6  O   -0.000716
     7  O   -0.001760
     8  C    0.421368
     9  H    0.004074
    10  H   -0.002769
    11  H   -0.032819
    12  H   -0.032859
    13  H    0.551150
 Mulliken atomic charges:
              1
     1  C   -0.283726
     2  C   -0.245269
     3  N   -0.120156
     4  H    0.196075
     5  H    0.206422
     6  O    0.017177
     7  O   -0.135114
     8  C   -0.520702
     9  H    0.176452
    10  H    0.168698
    11  H    0.196563
    12  H    0.175506
    13  H    0.168076
 Sum of Mulliken atomic charges =  -0.00000
 Mulliken charges with hydrogens summed into heavy atoms:
              1
     1  C    0.118770
     2  C    0.099881
     3  N   -0.120156
     6  O    0.017177
     7  O   -0.135114
     8  C    0.019442
 Sum of Mulliken charges with hydrogens summed into heavy atoms =  -0.00000
 Electronic spatial extent (au):  <R**2>=           4669.3775
 Charge=              0.0000 electrons
 Dipole moment (field-independent basis, Debye):
    X=              0.3675    Y=              3.9995    Z=             -2.0651  Tot=              4.5161
 Quadrupole moment (field-independent basis, Debye-Ang):
   XX=            -43.1321   YY=            -39.9482   ZZ=            -40.9044
   XY=            -18.6118   XZ=             11.1925   YZ=              7.7192
 Traceless Quadrupole moment (field-independent basis, Debye-Ang):
   XX=             -1.8039   YY=              1.3801   ZZ=              0.4238
   XY=            -18.6118   XZ=             11.1925   YZ=              7.7192
 Octapole moment (field-independent basis, Debye-Ang**2):
  XXX=            568.5801  YYY=             -0.3908  ZZZ=           -185.5162  XYY=            183.7211
  XXY=             89.2962  XXZ=           -125.0082  XZZ=            190.1710  YZZ=             10.7052
  YYZ=            -67.7424  XYZ=            -37.0633
 Hexadecapole moment (field-independent basis, Debye-Ang**3):
 XXXX=          -5427.4911 YYYY=           -383.4575 ZZZZ=           -736.6095 XXXY=           -531.1227
 XXXZ=           1202.6533 YYYX=            -77.9180 YYYZ=             16.7319 ZZZX=            842.2664
 ZZZY=             20.4007 XXYY=           -953.0017 XXZZ=          -1065.5703 YYZZ=           -203.3340
 XXYZ=            188.9305 YYXZ=            310.2150 ZZXY=            -82.2031
 N-N= 2.408150045803D+02 E-N=-1.236449179389D+03  KE= 3.198942803841D+02
 Orbital energies and kinetic energies (alpha):
                                 1                 2
   1         O       -.19342367085704E+02 0.29037114978627E+02
   2         O       -.19321695542107E+02 0.29040854251956E+02
   3         O       -.14700633454649E+02 0.21983402095977E+02
   4         O       -.10400211707957E+02 0.15907691687326E+02
   5         O       -.10343205851921E+02 0.15905588149553E+02
   6         O       -.10305823865692E+02 0.15898110733111E+02
   7         O       -.12833555125037E+01 0.24432407671009E+01
   8         O       -.11028280760794E+01 0.27805335284220E+01
   9         O       -.94928986754557E+00 0.16793517236607E+01
  10         O       -.84996582068776E+00 0.16190182438952E+01
  11         O       -.77618292882898E+00 0.17295361112363E+01
  12         O       -.69320653227678E+00 0.20388639321523E+01
  13         O       -.62204125547607E+00 0.14395764158231E+01
  14         O       -.61526403284631E+00 0.19507592887026E+01
  15         O       -.59548628209896E+00 0.19037160546102E+01
  16         O       -.55037239646403E+00 0.12314308803915E+01
  17         O       -.53877305443940E+00 0.13405898945205E+01
  18         O       -.50294332237992E+00 0.11999902753116E+01
  19         O       -.48569406238470E+00 0.12253073333117E+01
  20         O       -.45173345014879E+00 0.12058678733886E+01
  21         O       -.42697239674263E+00 0.11901833819996E+01
  22         O       -.40424400487764E+00 0.23094045420222E+01
  23         O       -.39163437553740E+00 0.23770409421873E+01
  24         O       -.38019975886756E+00 0.25099671067477E+01
  25         V       -.52102640827664E-01 0.24409455142441E+01
  26         V       0.73931650080681E-02 0.35671149586598E-01
  27         V       0.13552627833646E-01 0.21195541571338E-01
  28         V       0.14363516468315E-01 0.16707955202235E-01
  29         V       0.17189868489661E-01 0.16021095546594E-01
  30         V       0.46301222748408E-01 0.23958885035182E+00
  31         V       0.62445807760602E-01 0.18816997694530E+00
  32         V       0.67164120040288E-01 0.16228509529234E+00
  33         V       0.72669682041472E-01 0.15591565339606E+00
  34         V       0.93482986650042E-01 0.33278224889764E+00
  35         V       0.98346431650210E-01 0.37114478202701E+00
  36         V       0.10938177713176E+00 0.35945638696173E+00
  37         V       0.11857319946282E+00 0.29820764236961E+00
  38         V       0.12396462567037E+00 0.44709876125149E+00
  39         V       0.13635235234274E+00 0.54314510290848E+00
  40         V       0.14505346263218E+00 0.90338155826357E+00
  41         V       0.15638971817153E+00 0.32037135569423E+00
  42         V       0.16201396145848E+00 0.46098085386962E+00
  43         V       0.16512869030652E+00 0.55180862908015E+00
  44         V       0.17640376302197E+00 0.12950028131561E+01
  45         V       0.18416321346530E+00 0.58541108666090E+00
  46         V       0.20144389162788E+00 0.55711755637319E+00
  47         V       0.21894064106388E+00 0.86319114645423E+00
  48         V       0.22527236386817E+00 0.71749144366947E+00
  49         V       0.22850347578649E+00 0.14218538522718E+01
  50         V       0.23528166303849E+00 0.11439241506752E+01
  51         V       0.25984136520706E+00 0.72033202350529E+00
  52         V       0.26311299186316E+00 0.88952480464370E+00
  53         V       0.28553943220926E+00 0.10656941815207E+01
  54         V       0.29561911439550E+00 0.11440457862519E+01
  55         V       0.30990676735011E+00 0.12496235844190E+01
  56         V       0.31316587776904E+00 0.12671250773819E+01
  57         V       0.33235549221212E+00 0.10465364602817E+01
  58         V       0.34575456920463E+00 0.99956234952133E+00
  59         V       0.34896243718068E+00 0.12886348268748E+01
  60         V       0.36100180750034E+00 0.10993797371703E+01
  61         V       0.36842007663779E+00 0.77253606364297E+00
  62         V       0.37883466350267E+00 0.99049124351332E+00
  63         V       0.38449675939754E+00 0.16520343203495E+01
  64         V       0.39518866680140E+00 0.97336448484538E+00
  65         V       0.40155961992254E+00 0.12072236651384E+01
  66         V       0.41907586052532E+00 0.15202698901142E+01
  67         V       0.47309458841329E+00 0.10850420561398E+01
  68         V       0.48275170507908E+00 0.10709815528819E+01
  69         V       0.54667371683944E+00 0.12617082475594E+01
  70         V       0.68555865893222E+00 0.21846642110090E+01
  71         V       0.69473984370325E+00 0.18600784727002E+01
  72         V       0.72793115174169E+00 0.21455990361527E+01
  73         V       0.75318626794272E+00 0.19117102843684E+01
  74         V       0.76886264248673E+00 0.20018143374313E+01
  75         V       0.77123073495210E+00 0.20897138467898E+01
  76         V       0.79825791392698E+00 0.24796512248521E+01
  77         V       0.84584993253399E+00 0.23165005261754E+01
  78         V       0.90814659475087E+00 0.24348267397961E+01
  79         V       0.95315904571619E+00 0.24445547501563E+01
  80         V       0.97140575023896E+00 0.24340878372906E+01
  81         V       0.10211441863043E+01 0.25709326509590E+01
  82         V       0.10298237988192E+01 0.22082408231066E+01
  83         V       0.10678251565987E+01 0.23974981985955E+01
  84         V       0.10828721966335E+01 0.23835031544602E+01
  85         V       0.11032245046493E+01 0.24333308975329E+01
  86         V       0.11313916833479E+01 0.24322222771511E+01
  87         V       0.11765772699019E+01 0.24564126405706E+01
  88         V       0.11994322013859E+01 0.28593114584459E+01
  89         V       0.12304537772987E+01 0.28630582577135E+01
  90         V       0.12502525124887E+01 0.31978284451461E+01
  91         V       0.12872501425830E+01 0.29262035856481E+01
  92         V       0.13057383535358E+01 0.32112991753371E+01
  93         V       0.13385555184966E+01 0.27638906140320E+01
  94         V       0.13434004628979E+01 0.31139935037381E+01
  95         V       0.13684987092398E+01 0.35144332647785E+01
  96         V       0.13936791221879E+01 0.27705506963123E+01
  97         V       0.14347465491160E+01 0.27029657270698E+01
  98         V       0.14434898807163E+01 0.25771664129471E+01
  99         V       0.14806849569836E+01 0.25982783994905E+01
 100         V       0.15035976234419E+01 0.25165939091644E+01
 101         V       0.15727980404950E+01 0.25684908183582E+01
 102         V       0.16667407972192E+01 0.26528790854711E+01
 103         V       0.17106817944466E+01 0.28083936608825E+01
 104         V       0.17544646503181E+01 0.28644909383747E+01
 105         V       0.17854011638227E+01 0.28956871522711E+01
 106         V       0.18061396371942E+01 0.29396026945361E+01
 107         V       0.18396402371972E+01 0.31184875720971E+01
 108         V       0.18747391867974E+01 0.29891115725302E+01
 109         V       0.18966109343405E+01 0.28808472463330E+01
 110         V       0.19112961077861E+01 0.31122873353468E+01
 111         V       0.19249548011313E+01 0.30714257186988E+01
 112         V       0.19532401546297E+01 0.30626016649098E+01
 113         V       0.19833898911204E+01 0.30925749982181E+01
 114         V       0.20007654506292E+01 0.31896876292154E+01
 115         V       0.20289354487057E+01 0.31422518801104E+01
 116         V       0.20465984497011E+01 0.30159325128996E+01
 117         V       0.20760829886054E+01 0.34884402417423E+01
 118         V       0.20912730966403E+01 0.31811752048909E+01
 119         V       0.21670418948202E+01 0.33392410892417E+01
 120         V       0.22127867788449E+01 0.33531181644944E+01
 121         V       0.22542946658205E+01 0.34078561192807E+01
 122         V       0.22882131911892E+01 0.33096089628488E+01
 123         V       0.23020531489935E+01 0.32875330396089E+01
 124         V       0.23310740103466E+01 0.32472547452764E+01
 125         V       0.23491171318418E+01 0.33031636717763E+01
 126         V       0.24022384310463E+01 0.35731808648009E+01
 127         V       0.24411757829686E+01 0.36015767525502E+01
 128         V       0.24651475936007E+01 0.35436010367256E+01
 129         V       0.25063515649629E+01 0.36575373350358E+01
 130         V       0.25401838030872E+01 0.37059605565590E+01
 131         V       0.25668184112415E+01 0.35184925939965E+01
 132         V       0.25863688479113E+01 0.36143295722742E+01
 133         V       0.26540599169991E+01 0.37425842653405E+01
 134         V       0.27116433855164E+01 0.36063883585411E+01
 135         V       0.27488870996625E+01 0.37613663925889E+01
 136         V       0.27652165235653E+01 0.38452916287309E+01
 137         V       0.27998376771163E+01 0.41096441285935E+01
 138         V       0.28185436499017E+01 0.38669826385919E+01
 139         V       0.28543728995834E+01 0.39800669530397E+01
 140         V       0.29388261693492E+01 0.40402190814711E+01
 141         V       0.29679564907937E+01 0.44087439969635E+01
 142         V       0.30583595197810E+01 0.46868288713677E+01
 143         V       0.30854683657756E+01 0.43069576055100E+01
 144         V       0.31267205690645E+01 0.44773365169038E+01
 145         V       0.32417553328331E+01 0.46637118691850E+01
 146         V       0.33471180867446E+01 0.49302976971133E+01
 147         V       0.34149007484785E+01 0.48222637734274E+01
 148         V       0.34761981342701E+01 0.49565514803813E+01
 149         V       0.35236087968766E+01 0.49865120473338E+01
 150         V       0.35744241460205E+01 0.52659528864677E+01
 151         V       0.37462565243828E+01 0.55501691608044E+01
 152         V       0.41549596906735E+01 0.10263022074695E+02
 153         V       0.43656746912299E+01 0.11405505717246E+02
 154         V       0.44609833614785E+01 0.10068845310657E+02
 155         V       0.45860428176027E+01 0.10527077752395E+02
 156         V       0.46009205880707E+01 0.11821545609476E+02
 157         V       0.47142596374088E+01 0.10432118220478E+02
 Total kinetic energy from orbitals= 3.198942803841D+02
 No NMR shielding tensors so no spin-rotation constants.
 Leave Link  601 at Fri Nov  4 21:06:46 2022, MaxMem= 3276800000 cpu:       2.1
 (Enter /local/g09-source/g09/l9999.exe)

 Test job not archived.
 1\1\GINC-WUX25\SP\RwB97XD\Gen\C3H7N1O2\ISSLERK\04-Nov-2022\0\\#p wB97X
 D/GEN 6D Iop(6/7=3) Iop(9/40=14) scf(maxcyc=200,conver=8) nosym Guess(
 Read,TCheck) GFInput\\Comment\\0,1\C,0,-5.051225953,0.470784076,0.8095
 90727\C,0,-3.760154017,1.21131741,0.889299027\N,0,-5.128800408,-0.7170
 89144,1.739894197\H,0,-6.046911165,1.01446883,1.117771917\H,0,-5.12051
 3648,-0.017835847,-0.253650041\O,0,-6.307384602,-1.12064486,2.00430806
 7\O,0,-4.06379149,-1.578582571,1.904516216\C,0,-3.266390158,1.60392811
 7,2.435240351\H,0,-2.99065024,0.589255087,0.308685742\H,0,-3.810403245
 ,2.092604838,0.194830769\H,0,-3.143648533,0.694803671,3.03958677\H,0,-
 2.548135407,2.368979393,2.396743902\H,0,-4.12356849,2.044252317,2.7298
 27713\\Version=EM64L-G09RevA.02\HF=-323.4890692\RMSD=7.481e-09\Dipole=
 0.1445775,1.573511,-0.8124735\Quadrupole=-1.3411471,1.0260378,0.315109
 3,-13.8373914,8.3213137,5.7390119\PG=C01 [X(C3H7N1O2)]\\@


 ... THE UNIVERSE IS NOT ONLY QUEERER THAN WE SUPPOSE,
 BUT QUEERER THAN WE CAN SUPPOSE ... 

                                   -- J. B. S. HALDANE
 Job cpu time:  0 days  0 hours  3 minutes 37.0 seconds.
 File lengths (MBytes):  RWF=     19 Int=      0 D2E=      0 Chk=      2 Scr=      1
 Normal termination of Gaussian 09 at Fri Nov  4 21:06:46 2022.
