 Entering Gaussian System, Link 0=g09
 Input=an.in2
 Output=an.log2
 Initial command:
 /local/g09-source/g09/l1.exe /scratch/1234596/TRAJ_33/Gau-29760.inp -scrdir=/scratch/1234596/TRAJ_33/
 Entering Link 1 = /local/g09-source/g09/l1.exe PID=     29762.
  
 Copyright (c) 1988,1990,1992,1993,1995,1998,2003,2009, Gaussian, Inc.
                  All Rights Reserved.
  
 This is part of the Gaussian(R) 09 program.  It is based on
 the Gaussian(R) 03 system (copyright 2003, Gaussian, Inc.),
 the Gaussian(R) 98 system (copyright 1998, Gaussian, Inc.),
 the Gaussian(R) 94 system (copyright 1995, Gaussian, Inc.),
 the Gaussian 92(TM) system (copyright 1992, Gaussian, Inc.),
 the Gaussian 90(TM) system (copyright 1990, Gaussian, Inc.),
 the Gaussian 88(TM) system (copyright 1988, Gaussian, Inc.),
 the Gaussian 86(TM) system (copyright 1986, Carnegie Mellon
 University), and the Gaussian 82(TM) system (copyright 1983,
 Carnegie Mellon University). Gaussian is a federally registered
 trademark of Gaussian, Inc.
  
 This software contains proprietary and confidential information,
 including trade secrets, belonging to Gaussian, Inc.
  
 This software is provided under written license and may be
 used, copied, transmitted, or stored only in accord with that
 written license.
  
 The following legend is applicable only to US Government
 contracts under FAR:
  
                    RESTRICTED RIGHTS LEGEND
  
 Use, reproduction and disclosure by the US Government is
 subject to restrictions as set forth in subparagraphs (a)
 and (c) of the Commercial Computer Software - Restricted
 Rights clause in FAR 52.227-19.
  
 Gaussian, Inc.
 340 Quinnipiac St., Bldg. 40, Wallingford CT 06492
  
  
 ---------------------------------------------------------------
 Warning -- This program may not be used in any manner that
 competes with the business of Gaussian, Inc. or will provide
 assistance to any competitor of Gaussian, Inc.  The licensee
 of this program is prohibited from giving any competitor of
 Gaussian, Inc. access to this program.  By using this program,
 the user acknowledges that Gaussian, Inc. is engaged in the
 business of creating and licensing software in the field of
 computational chemistry and represents and warrants to the
 licensee that it is not a competitor of Gaussian, Inc. and that
 it will not use this program in any manner prohibited above.
 ---------------------------------------------------------------
  

 Cite this work as:
 Gaussian 09, Revision A.02,
 M. J. Frisch, G. W. Trucks, H. B. Schlegel, G. E. Scuseria, 
 M. A. Robb, J. R. Cheeseman, G. Scalmani, V. Barone, B. Mennucci, 
 G. A. Petersson, H. Nakatsuji, M. Caricato, X. Li, H. P. Hratchian, 
 A. F. Izmaylov, J. Bloino, G. Zheng, J. L. Sonnenberg, M. Hada, 
 M. Ehara, K. Toyota, R. Fukuda, J. Hasegawa, M. Ishida, T. Nakajima, 
 Y. Honda, O. Kitao, H. Nakai, T. Vreven, J. A. Montgomery, Jr., 
 J. E. Peralta, F. Ogliaro, M. Bearpark, J. J. Heyd, E. Brothers, 
 K. N. Kudin, V. N. Staroverov, R. Kobayashi, J. Normand, 
 K. Raghavachari, A. Rendell, J. C. Burant, S. S. Iyengar, J. Tomasi, 
 M. Cossi, N. Rega, J. M. Millam, M. Klene, J. E. Knox, J. B. Cross, 
 V. Bakken, C. Adamo, J. Jaramillo, R. Gomperts, R. E. Stratmann, 
 O. Yazyev, A. J. Austin, R. Cammi, C. Pomelli, J. W. Ochterski, 
 R. L. Martin, K. Morokuma, V. G. Zakrzewski, G. A. Voth, 
 P. Salvador, J. J. Dannenberg, S. Dapprich, A. D. Daniels, 
 O. Farkas, J. B. Foresman, J. V. Ortiz, J. Cioslowski, 
 and D. J. Fox, Gaussian, Inc., Wallingford CT, 2009.
 
 ******************************************
 Gaussian 09:  EM64L-G09RevA.02 11-Jun-2009
                13-Oct-2022 
 ******************************************
 %Chk=an.chk
 %Nproc=10
 Will use up to   10 processors via shared memory.
 %Mem=25000Mb
 ----------------------------------------------------------------------
 #p wB97XD/GEN 6D Iop(6/7=3) Iop(9/40=14) scf(maxcyc=200,conver=8) nosy
 m Guess(Read,TCheck) GFInput Force
 ----------------------------------------------------------------------
 1/10=7,30=1,38=1/1,3;
 2/12=2,15=1,17=6,18=5,40=1/2;
 3/5=7,8=2,11=2,16=1,24=10,25=1,30=1,71=1,74=-58/1,2,3;
 4/5=102/1;
 5/5=2,6=8,7=200/2;
 6/7=3,8=2,9=2,10=2,28=1/1;
 7/29=1,30=1/1,2,3,16;
 1/10=7,30=1/3;
 99//99;
 Leave Link    1 at Thu Oct 13 23:27:43 2022, MaxMem= 3276800000 cpu:       0.6
 (Enter /local/g09-source/g09/l101.exe)
 -------
 Comment
 -------
 Symbolic Z-matrix:
 Charge = -1 Multiplicity = 2
 C                    -4.95769   0.30893   0.87298 
 C                    -3.60831   1.07641   0.98295 
 N                    -5.1549   -0.73126   1.65766 
 H                    -5.75725   1.01627   0.90198 
 H                    -4.8086   -0.13833  -0.2152 
 O                    -6.23491  -0.98764   2.29396 
 O                    -4.11619  -1.54596   1.56197 
 C                    -3.48161   1.71273   2.4455 
 H                    -2.95193   0.3638    0.7522 
 H                    -3.60467   1.76833   0.19271 
 H                    -3.52717   0.95514   3.13445 
 H                    -2.80305   2.49733   2.44515 
 H                    -4.63702   2.13107   2.33825 
 
 NAtoms=     13 NQM=     13 NQMF=      0 NMic=      0 NMicF=      0 NTot=     13.
                    Isotopes and Nuclear Properties:
 (Nuclear quadrupole moments (NQMom) in fm**2, nuclear magnetic moments (NMagM)
  in nuclear magnetons)

  Atom         1           2           3           4           5           6           7           8           9          10
 IAtWgt=          12          12          14           1           1          16          16          12           1           1
 AtmWgt=  12.0000000  12.0000000  14.0030740   1.0078250   1.0078250  15.9949146  15.9949146  12.0000000   1.0078250   1.0078250
 NucSpn=           0           0           2           1           1           0           0           0           1           1
 AtZEff=   0.0000000   0.0000000   0.0000000   0.0000000   0.0000000   0.0000000   0.0000000   0.0000000   0.0000000   0.0000000
 NQMom=    0.0000000   0.0000000   2.0440000   0.0000000   0.0000000   0.0000000   0.0000000   0.0000000   0.0000000   0.0000000
 NMagM=    0.0000000   0.0000000   0.4037610   2.7928460   2.7928460   0.0000000   0.0000000   0.0000000   2.7928460   2.7928460

  Atom        11          12          13
 IAtWgt=           1           1           1
 AtmWgt=   1.0078250   1.0078250   1.0078250
 NucSpn=           1           1           1
 AtZEff=   0.0000000   0.0000000   0.0000000
 NQMom=    0.0000000   0.0000000   0.0000000
 NMagM=    2.7928460   2.7928460   2.7928460
 Leave Link  101 at Thu Oct 13 23:27:43 2022, MaxMem= 3276800000 cpu:       0.7
 (Enter /local/g09-source/g09/l103.exe)

 GradGradGradGradGradGradGradGradGradGradGradGradGradGradGradGradGradGrad
 Berny optimization.
 Initialization pass.
 Trust Radius=3.00D-01 FncErr=1.00D-07 GrdErr=1.00D-07
 Number of steps in this run=   2 maximum allowed number of steps=   2.
 GradGradGradGradGradGradGradGradGradGradGradGradGradGradGradGradGradGrad

 Leave Link  103 at Thu Oct 13 23:27:43 2022, MaxMem= 3276800000 cpu:       0.2
 (Enter /local/g09-source/g09/l202.exe)
                          Input orientation:                          
 ---------------------------------------------------------------------
 Center     Atomic      Atomic             Coordinates (Angstroms)
 Number     Number       Type             X           Y           Z
 ---------------------------------------------------------------------
      1          6           0       -4.957694    0.308934    0.872985
      2          6           0       -3.608305    1.076412    0.982950
      3          7           0       -5.154897   -0.731256    1.657660
      4          1           0       -5.757245    1.016269    0.901983
      5          1           0       -4.808602   -0.138330   -0.215205
      6          8           0       -6.234913   -0.987643    2.293958
      7          8           0       -4.116188   -1.545960    1.561972
      8          6           0       -3.481606    1.712735    2.445498
      9          1           0       -2.951933    0.363797    0.752199
     10          1           0       -3.604674    1.768329    0.192706
     11          1           0       -3.527169    0.955145    3.134447
     12          1           0       -2.803053    2.497333    2.445154
     13          1           0       -4.637022    2.131069    2.338246
 ---------------------------------------------------------------------
                    Distance matrix (angstroms):
                    1          2          3          4          5
     1  C    0.000000
     2  C    1.556267   0.000000
     3  N    1.317801   2.472821   0.000000
     4  H    1.067917   2.151306   1.996927   0.000000
     5  H    1.185930   2.086117   1.994769   1.865779   0.000000
     6  O    2.309017   3.588612   1.279470   2.486247   3.008586
     7  O    2.150225   2.733139   1.323562   3.113467   2.370489
     8  C    2.573381   1.600002   3.064912   2.836554   3.502385
     9  H    2.010143   0.995937   2.621460   2.884082   2.152956
    10  H    2.103159   1.050356   3.285911   2.387934   2.291546
    11  H    2.752853   2.156438   2.770261   3.156085   3.749390
    12  H    3.450114   2.192142   4.071253   3.647215   4.248112
    13  H    2.360085   2.001846   2.987357   2.135541   3.420486
                    6          7          8          9         10
     6  O    0.000000
     7  O    2.310090   0.000000
     8  C    3.859495   3.435463   0.000000
     9  H    3.870577   2.378738   2.228778   0.000000
    10  H    4.350723   3.622299   2.256836   1.646759   0.000000
    11  H    3.436965   3.012499   1.025021   2.521050   3.053050
    12  H    4.893422   4.341953   1.037318   2.727680   2.499513
    13  H    3.504509   3.793998   1.233488   2.911756   2.408456
                   11         12         13
    11  H    0.000000
    12  H    1.837882   0.000000
    13  H    1.802362   1.873237   0.000000
 Symmetry turned off by external request.
 Stoichiometry    C3H7NO2(1-,2)
 Framework group  C1[X(C3H7NO2)]
 Deg. of freedom    33
 Full point group                 C1      NOp   1
 Rotational constants (GHZ):      6.2196159      2.4690114      2.2883013
 Leave Link  202 at Thu Oct 13 23:27:43 2022, MaxMem= 3276800000 cpu:       0.0
 (Enter /local/g09-source/g09/l301.exe)
 General basis read from cards:  (6D, 7F)
 Centers:   4  5  9 10 11 12 13
 S 3 1.0
     Exponent=  1.8731136960D+01 Coefficients=  3.3494604000D-02
     Exponent=  2.8253943650D+00 Coefficients=  2.3472695400D-01
     Exponent=  6.4012169200D-01 Coefficients=  8.1375732600D-01
 S 1 1.0
     Exponent=  1.6127775900D-01 Coefficients=  1.0000000000D+00
 P 1 1.0
     Exponent=  1.1000000000D+00 Coefficients=  1.0000000000D+00
 ****
 Centers:   1  2  8
 S 6 1.0
     Exponent=  3.0475248800D+03 Coefficients=  1.8347370000D-03
     Exponent=  4.5736951800D+02 Coefficients=  1.4037323000D-02
     Exponent=  1.0394868500D+02 Coefficients=  6.8842622000D-02
     Exponent=  2.9210155300D+01 Coefficients=  2.3218444300D-01
     Exponent=  9.2866629600D+00 Coefficients=  4.6794134800D-01
     Exponent=  3.1639269600D+00 Coefficients=  3.6231198500D-01
 S 3 1.0
     Exponent=  7.8682723500D+00 Coefficients= -1.1933242000D-01
     Exponent=  1.8812885400D+00 Coefficients= -1.6085415200D-01
     Exponent=  5.4424925800D-01 Coefficients=  1.1434564380D+00
 S 1 1.0
     Exponent=  1.6871447800D-01 Coefficients=  1.0000000000D+00
 S 1 1.0
     Exponent=  4.3800000000D-02 Coefficients=  1.0000000000D+00
 P 3 1.0
     Exponent=  7.8682723500D+00 Coefficients=  6.8999067000D-02
     Exponent=  1.8812885400D+00 Coefficients=  3.1642396100D-01
     Exponent=  5.4424925800D-01 Coefficients=  7.4430829100D-01
 P 1 1.0
     Exponent=  1.6871447800D-01 Coefficients=  1.0000000000D+00
 P 1 1.0
     Exponent=  4.3800000000D-02 Coefficients=  1.0000000000D+00
 D 1 1.0
     Exponent=  8.0000000000D-01 Coefficients=  1.0000000000D+00
 ****
 Centers:   3
 S 6 1.0
     Exponent=  4.1735114600D+03 Coefficients=  1.8347720000D-03
     Exponent=  6.2745791100D+02 Coefficients=  1.3994627000D-02
     Exponent=  1.4290209300D+02 Coefficients=  6.8586552000D-02
     Exponent=  4.0234329300D+01 Coefficients=  2.3224087300D-01
     Exponent=  1.2820212900D+01 Coefficients=  4.6906994800D-01
     Exponent=  4.3904370100D+00 Coefficients=  3.6045519900D-01
 S 3 1.0
     Exponent=  1.1626361860D+01 Coefficients= -1.1496118200D-01
     Exponent=  2.7162798070D+00 Coefficients= -1.6911747900D-01
     Exponent=  7.7221839700D-01 Coefficients=  1.1458519470D+00
 S 1 1.0
     Exponent=  2.1203149700D-01 Coefficients=  1.0000000000D+00
 S 1 1.0
     Exponent=  6.3900000000D-02 Coefficients=  1.0000000000D+00
 S 1 1.0
     Exponent=  1.8257143000D-02 Coefficients=  1.0000000000D+00
 S 1 1.0
     Exponent=  5.2163270000D-03 Coefficients=  1.0000000000D+00
 P 3 1.0
     Exponent=  1.1626361860D+01 Coefficients=  6.7579744000D-02
     Exponent=  2.7162798070D+00 Coefficients=  3.2390729600D-01
     Exponent=  7.7221839700D-01 Coefficients=  7.4089514000D-01
 P 1 1.0
     Exponent=  2.1203149700D-01 Coefficients=  1.0000000000D+00
 P 1 1.0
     Exponent=  6.3900000000D-02 Coefficients=  1.0000000000D+00
 P 1 1.0
     Exponent=  1.8257143000D-02 Coefficients=  1.0000000000D+00
 P 1 1.0
     Exponent=  5.2163270000D-03 Coefficients=  1.0000000000D+00
 D 1 1.0
     Exponent=  8.0000000000D-01 Coefficients=  1.0000000000D+00
 ****
 Centers:   6  7
 S 6 1.0
     Exponent=  5.4846716600D+03 Coefficients=  1.8310740000D-03
     Exponent=  8.2523494600D+02 Coefficients=  1.3950172000D-02
     Exponent=  1.8804695800D+02 Coefficients=  6.8445078000D-02
     Exponent=  5.2964500000D+01 Coefficients=  2.3271433600D-01
     Exponent=  1.6897570400D+01 Coefficients=  4.7019289800D-01
     Exponent=  5.7996353400D+00 Coefficients=  3.5852085300D-01
 S 3 1.0
     Exponent=  1.5539616250D+01 Coefficients= -1.1077755000D-01
     Exponent=  3.5999335860D+00 Coefficients= -1.4802626300D-01
     Exponent=  1.0137617500D+00 Coefficients=  1.1307670150D+00
 S 1 1.0
     Exponent=  2.7000582300D-01 Coefficients=  1.0000000000D+00
 S 1 1.0
     Exponent=  8.4500000000D-02 Coefficients=  1.0000000000D+00
 P 3 1.0
     Exponent=  1.5539616250D+01 Coefficients=  7.0874268000D-02
     Exponent=  3.5999335860D+00 Coefficients=  3.3975283900D-01
     Exponent=  1.0137617500D+00 Coefficients=  7.2715857700D-01
 P 1 1.0
     Exponent=  2.7000582300D-01 Coefficients=  1.0000000000D+00
 P 1 1.0
     Exponent=  8.4500000000D-02 Coefficients=  1.0000000000D+00
 D 1 1.0
     Exponent=  8.0000000000D-01 Coefficients=  1.0000000000D+00
 ****
 Ernie: Thresh=  0.10000D-02 Tol=  0.10000D-05 Strict=F.
 AO basis set in the form of general basis input (Overlap normalization):
      1 0
 S   6 1.00       0.000000000000
      0.3047524880D+04  0.1834737002D-02
      0.4573695180D+03  0.1403732301D-01
      0.1039486850D+03  0.6884262207D-01
      0.2921015530D+02  0.2321844432D+00
      0.9286662960D+01  0.4679413485D+00
      0.3163926960D+01  0.3623119854D+00
 S   3 1.00       0.000000000000
      0.7868272350D+01 -0.1193324200D+00
      0.1881288540D+01 -0.1608541520D+00
      0.5442492580D+00  0.1143456438D+01
 S   1 1.00       0.000000000000
      0.1687144780D+00  0.1000000000D+01
 S   1 1.00       0.000000000000
      0.4380000000D-01  0.1000000000D+01
 P   3 1.00       0.000000000000
      0.7868272350D+01  0.6899906698D-01
      0.1881288540D+01  0.3164239609D+00
      0.5442492580D+00  0.7443082908D+00
 P   1 1.00       0.000000000000
      0.1687144780D+00  0.1000000000D+01
 P   1 1.00       0.000000000000
      0.4380000000D-01  0.1000000000D+01
 D   1 1.00       0.000000000000
      0.8000000000D+00  0.1000000000D+01
 ****
      2 0
 S   6 1.00       0.000000000000
      0.3047524880D+04  0.1834737002D-02
      0.4573695180D+03  0.1403732301D-01
      0.1039486850D+03  0.6884262207D-01
      0.2921015530D+02  0.2321844432D+00
      0.9286662960D+01  0.4679413485D+00
      0.3163926960D+01  0.3623119854D+00
 S   3 1.00       0.000000000000
      0.7868272350D+01 -0.1193324200D+00
      0.1881288540D+01 -0.1608541520D+00
      0.5442492580D+00  0.1143456438D+01
 S   1 1.00       0.000000000000
      0.1687144780D+00  0.1000000000D+01
 S   1 1.00       0.000000000000
      0.4380000000D-01  0.1000000000D+01
 P   3 1.00       0.000000000000
      0.7868272350D+01  0.6899906698D-01
      0.1881288540D+01  0.3164239609D+00
      0.5442492580D+00  0.7443082908D+00
 P   1 1.00       0.000000000000
      0.1687144780D+00  0.1000000000D+01
 P   1 1.00       0.000000000000
      0.4380000000D-01  0.1000000000D+01
 D   1 1.00       0.000000000000
      0.8000000000D+00  0.1000000000D+01
 ****
      3 0
 S   6 1.00       0.000000000000
      0.4173511460D+04  0.1834772000D-02
      0.6274579110D+03  0.1399462700D-01
      0.1429020930D+03  0.6858655201D-01
      0.4023432930D+02  0.2322408730D+00
      0.1282021290D+02  0.4690699480D+00
      0.4390437010D+01  0.3604551990D+00
 S   3 1.00       0.000000000000
      0.1162636186D+02 -0.1149611820D+00
      0.2716279807D+01 -0.1691174791D+00
      0.7722183970D+00  0.1145851947D+01
 S   1 1.00       0.000000000000
      0.2120314970D+00  0.1000000000D+01
 S   1 1.00       0.000000000000
      0.6390000000D-01  0.1000000000D+01
 S   1 1.00       0.000000000000
      0.1825714300D-01  0.1000000000D+01
 S   1 1.00       0.000000000000
      0.5216327000D-02  0.1000000000D+01
 P   3 1.00       0.000000000000
      0.1162636186D+02  0.6757974397D-01
      0.2716279807D+01  0.3239072959D+00
      0.7722183970D+00  0.7408951397D+00
 P   1 1.00       0.000000000000
      0.2120314970D+00  0.1000000000D+01
 P   1 1.00       0.000000000000
      0.6390000000D-01  0.1000000000D+01
 P   1 1.00       0.000000000000
      0.1825714300D-01  0.1000000000D+01
 P   1 1.00       0.000000000000
      0.5216327000D-02  0.1000000000D+01
 D   1 1.00       0.000000000000
      0.8000000000D+00  0.1000000000D+01
 ****
      4 0
 S   3 1.00       0.000000000000
      0.1873113696D+02  0.3349460400D-01
      0.2825394365D+01  0.2347269540D+00
      0.6401216920D+00  0.8137573259D+00
 S   1 1.00       0.000000000000
      0.1612777590D+00  0.1000000000D+01
 P   1 1.00       0.000000000000
      0.1100000000D+01  0.1000000000D+01
 ****
      5 0
 S   3 1.00       0.000000000000
      0.1873113696D+02  0.3349460400D-01
      0.2825394365D+01  0.2347269540D+00
      0.6401216920D+00  0.8137573259D+00
 S   1 1.00       0.000000000000
      0.1612777590D+00  0.1000000000D+01
 P   1 1.00       0.000000000000
      0.1100000000D+01  0.1000000000D+01
 ****
      6 0
 S   6 1.00       0.000000000000
      0.5484671660D+04  0.1831074000D-02
      0.8252349460D+03  0.1395017200D-01
      0.1880469580D+03  0.6844507801D-01
      0.5296450000D+02  0.2327143360D+00
      0.1689757040D+02  0.4701928980D+00
      0.5799635340D+01  0.3585208530D+00
 S   3 1.00       0.000000000000
      0.1553961625D+02 -0.1107775501D+00
      0.3599933586D+01 -0.1480262631D+00
      0.1013761750D+01  0.1130767016D+01
 S   1 1.00       0.000000000000
      0.2700058230D+00  0.1000000000D+01
 S   1 1.00       0.000000000000
      0.8450000000D-01  0.1000000000D+01
 P   3 1.00       0.000000000000
      0.1553961625D+02  0.7087426804D-01
      0.3599933586D+01  0.3397528392D+00
      0.1013761750D+01  0.7271585774D+00
 P   1 1.00       0.000000000000
      0.2700058230D+00  0.1000000000D+01
 P   1 1.00       0.000000000000
      0.8450000000D-01  0.1000000000D+01
 D   1 1.00       0.000000000000
      0.8000000000D+00  0.1000000000D+01
 ****
      7 0
 S   6 1.00       0.000000000000
      0.5484671660D+04  0.1831074000D-02
      0.8252349460D+03  0.1395017200D-01
      0.1880469580D+03  0.6844507801D-01
      0.5296450000D+02  0.2327143360D+00
      0.1689757040D+02  0.4701928980D+00
      0.5799635340D+01  0.3585208530D+00
 S   3 1.00       0.000000000000
      0.1553961625D+02 -0.1107775501D+00
      0.3599933586D+01 -0.1480262631D+00
      0.1013761750D+01  0.1130767016D+01
 S   1 1.00       0.000000000000
      0.2700058230D+00  0.1000000000D+01
 S   1 1.00       0.000000000000
      0.8450000000D-01  0.1000000000D+01
 P   3 1.00       0.000000000000
      0.1553961625D+02  0.7087426804D-01
      0.3599933586D+01  0.3397528392D+00
      0.1013761750D+01  0.7271585774D+00
 P   1 1.00       0.000000000000
      0.2700058230D+00  0.1000000000D+01
 P   1 1.00       0.000000000000
      0.8450000000D-01  0.1000000000D+01
 D   1 1.00       0.000000000000
      0.8000000000D+00  0.1000000000D+01
 ****
      8 0
 S   6 1.00       0.000000000000
      0.3047524880D+04  0.1834737002D-02
      0.4573695180D+03  0.1403732301D-01
      0.1039486850D+03  0.6884262207D-01
      0.2921015530D+02  0.2321844432D+00
      0.9286662960D+01  0.4679413485D+00
      0.3163926960D+01  0.3623119854D+00
 S   3 1.00       0.000000000000
      0.7868272350D+01 -0.1193324200D+00
      0.1881288540D+01 -0.1608541520D+00
      0.5442492580D+00  0.1143456438D+01
 S   1 1.00       0.000000000000
      0.1687144780D+00  0.1000000000D+01
 S   1 1.00       0.000000000000
      0.4380000000D-01  0.1000000000D+01
 P   3 1.00       0.000000000000
      0.7868272350D+01  0.6899906698D-01
      0.1881288540D+01  0.3164239609D+00
      0.5442492580D+00  0.7443082908D+00
 P   1 1.00       0.000000000000
      0.1687144780D+00  0.1000000000D+01
 P   1 1.00       0.000000000000
      0.4380000000D-01  0.1000000000D+01
 D   1 1.00       0.000000000000
      0.8000000000D+00  0.1000000000D+01
 ****
      9 0
 S   3 1.00       0.000000000000
      0.1873113696D+02  0.3349460400D-01
      0.2825394365D+01  0.2347269540D+00
      0.6401216920D+00  0.8137573259D+00
 S   1 1.00       0.000000000000
      0.1612777590D+00  0.1000000000D+01
 P   1 1.00       0.000000000000
      0.1100000000D+01  0.1000000000D+01
 ****
     10 0
 S   3 1.00       0.000000000000
      0.1873113696D+02  0.3349460400D-01
      0.2825394365D+01  0.2347269540D+00
      0.6401216920D+00  0.8137573259D+00
 S   1 1.00       0.000000000000
      0.1612777590D+00  0.1000000000D+01
 P   1 1.00       0.000000000000
      0.1100000000D+01  0.1000000000D+01
 ****
     11 0
 S   3 1.00       0.000000000000
      0.1873113696D+02  0.3349460400D-01
      0.2825394365D+01  0.2347269540D+00
      0.6401216920D+00  0.8137573259D+00
 S   1 1.00       0.000000000000
      0.1612777590D+00  0.1000000000D+01
 P   1 1.00       0.000000000000
      0.1100000000D+01  0.1000000000D+01
 ****
     12 0
 S   3 1.00       0.000000000000
      0.1873113696D+02  0.3349460400D-01
      0.2825394365D+01  0.2347269540D+00
      0.6401216920D+00  0.8137573259D+00
 S   1 1.00       0.000000000000
      0.1612777590D+00  0.1000000000D+01
 P   1 1.00       0.000000000000
      0.1100000000D+01  0.1000000000D+01
 ****
     13 0
 S   3 1.00       0.000000000000
      0.1873113696D+02  0.3349460400D-01
      0.2825394365D+01  0.2347269540D+00
      0.6401216920D+00  0.8137573259D+00
 S   1 1.00       0.000000000000
      0.1612777590D+00  0.1000000000D+01
 P   1 1.00       0.000000000000
      0.1100000000D+01  0.1000000000D+01
 ****

 Integral buffers will be    131072 words long.
 Raffenetti 2 integral format.
 Two-electron integral symmetry is turned off.
   157 basis functions,   249 primitive gaussians,   157 cartesian basis functions
    25 alpha electrons       24 beta electrons
       nuclear repulsion energy       249.8236358198 Hartrees.
 IExCor= 4639 DFT=T Ex+Corr=wB97XD ExCW=0 ScaHFX=  1.000000
 ScaDFX=  1.000000  1.000000  1.000000  1.000000 ScalE2=  1.000000  1.000000
 IRadAn=      0 IRanWt=     -1 IRanGd=            0 ICorTp=0
  HFx wShort=  0.000000 wLong=  0.200000 cFull=  0.222036 cShort=  0.000000 cLong=  0.777964
  DFx wShort=  0.000000 wLong=  0.200000 cFull=  0.000000 cShort=  0.000000 cLong=  1.000000
 NAtoms=   13 NActive=   13 NUniq=   13 SFac= 7.50D-01 NAtFMM=   80 NAOKFM=F Big=F
 R6Disp: Dispersion energy =        -0.0059193656 Hartrees.
 Nuclear repulsion after empirical dispersion term =      249.8177164542 Hartrees.
 Leave Link  301 at Thu Oct 13 23:27:43 2022, MaxMem= 3276800000 cpu:       0.5
 (Enter /local/g09-source/g09/l302.exe)
 NPDir=0 NMtPBC=     1 NCelOv=     1 NCel=       1 NClECP=     1 NCelD=      1
         NCelK=      1 NCelE2=     1 NClLst=     1 CellRange=     0.0.
 One-electron integrals computed using PRISM.
 NBasis=   157 RedAO= T  NBF=   157
 NBsUse=   157 1.00D-06 NBFU=   157
 Precomputing XC quadrature grid using
 IXCGrd= 2 IRadAn=           0 IRanWt=          -1 IRanGd=           0 AccXCQ= 1.00D-10.
 NRdTot=     881 NPtTot=      113336 NUsed=      119685 NTot=      119717
 NSgBfM=   157   157   157   157   157 NAtAll=    13    13.
 Leave Link  302 at Thu Oct 13 23:27:43 2022, MaxMem= 3276800000 cpu:       2.2
 (Enter /local/g09-source/g09/l303.exe)
 DipDrv:  MaxL=1.
 Leave Link  303 at Thu Oct 13 23:27:43 2022, MaxMem= 3276800000 cpu:       0.4
 (Enter /local/g09-source/g09/l401.exe)
 Initial guess read from the checkpoint file:  an.chk
 B after Tr=     0.000647    0.001829    0.002280
         Rot=    1.000000    0.000014    0.000118   -0.000114 Ang=   0.02 deg.
 Guess basis will be translated and rotated to current coordinates.
 Initial guess <Sx>= 0.0000 <Sy>= 0.0000 <Sz>= 0.5000 <S**2>= 0.7544 S= 0.5022
 Leave Link  401 at Thu Oct 13 23:27:44 2022, MaxMem= 3276800000 cpu:       1.8
 (Enter /local/g09-source/g09/l502.exe)
 UHF open shell SCF:
 Requested convergence on RMS density matrix=1.00D-08 within 200 cycles.
 Requested convergence on MAX density matrix=1.00D-06.
 Requested convergence on             energy=1.00D-06.
 No special actions if energy rises.
 Using DIIS extrapolation, IDIIS=  1040.
 Two-electron integral symmetry not used.
       119555 words used for storage of precomputed grid.
 IEnd=      238162 IEndB=      238162 NGot=  3276800000 MDV=  3276627045
 LenX=  3276627045 LenY=  3276601955
 Fock matrices will be formed incrementally for  20 cycles.

 Cycle   1  Pass 1  IDiag  1:
 FoFJK:  IHMeth= 1 ICntrl=     0 DoSepK=T KAlg= 1 I1Cent= 0 FoldK=F
 FoFCou: FMM=F IPFlag=           0 FMFlag=      100000 FMFlg1=           0
         NFxFlg=           0 DoJE=T BraDBF=F KetDBF=F FulRan=T
         Omega=  0.000000  0.000000  1.000000  0.000000  0.000000 ICntrl=     500 IOpCl=  0
         NMat0=    1 NMatS0=    1 NMatT0=    0 NMatD0=    1 NMtDS0=    0 NMtDT0=    0
         I1Cent=           0 NGrid=           0.
 Symmetry not used in FoFCou.
 E= -323.504281091199    
 DIIS: error= 3.51D-04 at cycle   1 NSaved=   1.
 NSaved= 1 IEnMin= 1 EnMin= -323.504281091199     IErMin= 1 ErrMin= 3.51D-04
 ErrMax= 3.51D-04 EMaxC= 1.00D-01 BMatC= 2.83D-04 BMatP= 2.83D-04
 IDIUse=3 WtCom= 9.96D-01 WtEn= 3.51D-03
 Coeff-Com:  0.100D+01
 Coeff-En:   0.100D+01
 Coeff:      0.100D+01
 Gap=     0.095 Goal=   None    Shift=    0.000
 Gap=     0.207 Goal=   None    Shift=    0.000
 RMSDP=1.55D-04 MaxDP=4.88D-03              OVMax= 2.86D-03

 Cycle   2  Pass 1  IDiag  1:
 RMSU=  1.19D-04    CP:  9.99D-01
 FoFJK:  IHMeth= 1 ICntrl=     0 DoSepK=T KAlg= 1 I1Cent= 0 FoldK=F
 E= -323.504390025605     Delta-E=       -0.000108934406 Rises=F Damp=F
 DIIS: error= 1.75D-04 at cycle   2 NSaved=   2.
 NSaved= 2 IEnMin= 2 EnMin= -323.504390025605     IErMin= 2 ErrMin= 1.75D-04
 ErrMax= 1.75D-04 EMaxC= 1.00D-01 BMatC= 3.08D-05 BMatP= 2.83D-04
 IDIUse=3 WtCom= 9.98D-01 WtEn= 1.75D-03
 Coeff-Com:  0.490D-01 0.951D+00
 Coeff-En:   0.000D+00 0.100D+01
 Coeff:      0.489D-01 0.951D+00
 Gap=     0.095 Goal=   None    Shift=    0.000
 Gap=     0.207 Goal=   None    Shift=    0.000
 RMSDP=5.53D-05 MaxDP=2.26D-03 DE=-1.09D-04 OVMax= 1.50D-03

 Cycle   3  Pass 1  IDiag  1:
 RMSU=  3.76D-05    CP:  9.99D-01  1.19D+00
 FoFJK:  IHMeth= 1 ICntrl=     0 DoSepK=T KAlg= 1 I1Cent= 0 FoldK=F
 E= -323.504398028532     Delta-E=       -0.000008002927 Rises=F Damp=F
 DIIS: error= 7.76D-05 at cycle   3 NSaved=   3.
 NSaved= 3 IEnMin= 3 EnMin= -323.504398028532     IErMin= 3 ErrMin= 7.76D-05
 ErrMax= 7.76D-05 EMaxC= 1.00D-01 BMatC= 1.27D-05 BMatP= 3.08D-05
 IDIUse=1 WtCom= 1.00D+00 WtEn= 0.00D+00
 Coeff-Com: -0.766D-01 0.389D+00 0.688D+00
 Coeff:     -0.766D-01 0.389D+00 0.688D+00
 Gap=     0.095 Goal=   None    Shift=    0.000
 Gap=     0.207 Goal=   None    Shift=    0.000
 RMSDP=2.69D-05 MaxDP=1.11D-03 DE=-8.00D-06 OVMax= 6.20D-04

 Cycle   4  Pass 1  IDiag  1:
 RMSU=  1.68D-05    CP:  9.99D-01  1.29D+00  1.17D+00
 FoFJK:  IHMeth= 1 ICntrl=     0 DoSepK=T KAlg= 1 I1Cent= 0 FoldK=F
 E= -323.504401327736     Delta-E=       -0.000003299204 Rises=F Damp=F
 DIIS: error= 3.68D-05 at cycle   4 NSaved=   4.
 NSaved= 4 IEnMin= 4 EnMin= -323.504401327736     IErMin= 4 ErrMin= 3.68D-05
 ErrMax= 3.68D-05 EMaxC= 1.00D-01 BMatC= 8.48D-07 BMatP= 1.27D-05
 IDIUse=1 WtCom= 1.00D+00 WtEn= 0.00D+00
 Coeff-Com: -0.282D-01 0.850D-01 0.234D+00 0.710D+00
 Coeff:     -0.282D-01 0.850D-01 0.234D+00 0.710D+00
 Gap=     0.095 Goal=   None    Shift=    0.000
 Gap=     0.208 Goal=   None    Shift=    0.000
 RMSDP=2.33D-05 MaxDP=2.08D-03 DE=-3.30D-06 OVMax= 4.03D-04

 Cycle   5  Pass 1  IDiag  1:
 RMSU=  1.38D-05    CP:  9.98D-01  1.34D+00  1.40D+00  1.30D+00
 FoFJK:  IHMeth= 1 ICntrl=     0 DoSepK=T KAlg= 1 I1Cent= 0 FoldK=F
 E= -323.504401548828     Delta-E=       -0.000000221092 Rises=F Damp=F
 DIIS: error= 3.09D-05 at cycle   5 NSaved=   5.
 NSaved= 5 IEnMin= 5 EnMin= -323.504401548828     IErMin= 5 ErrMin= 3.09D-05
 ErrMax= 3.09D-05 EMaxC= 1.00D-01 BMatC= 4.65D-07 BMatP= 8.48D-07
 IDIUse=1 WtCom= 1.00D+00 WtEn= 0.00D+00
 Coeff-Com:  0.304D-02-0.549D-01-0.431D-01 0.453D+00 0.642D+00
 Coeff:      0.304D-02-0.549D-01-0.431D-01 0.453D+00 0.642D+00
 Gap=     0.095 Goal=   None    Shift=    0.000
 Gap=     0.208 Goal=   None    Shift=    0.000
 RMSDP=1.57D-05 MaxDP=1.16D-03 DE=-2.21D-07 OVMax= 3.33D-04

 Cycle   6  Pass 1  IDiag  1:
 RMSU=  3.59D-06    CP:  9.98D-01  1.38D+00  1.56D+00  1.64D+00  1.45D+00
 FoFJK:  IHMeth= 1 ICntrl=     0 DoSepK=T KAlg= 1 I1Cent= 0 FoldK=F
 E= -323.504401694628     Delta-E=       -0.000000145800 Rises=F Damp=F
 DIIS: error= 3.60D-06 at cycle   6 NSaved=   6.
 NSaved= 6 IEnMin= 6 EnMin= -323.504401694628     IErMin= 6 ErrMin= 3.60D-06
 ErrMax= 3.60D-06 EMaxC= 1.00D-01 BMatC= 1.54D-08 BMatP= 4.65D-07
 IDIUse=1 WtCom= 1.00D+00 WtEn= 0.00D+00
 Coeff-Com:  0.421D-02-0.168D-01-0.362D-01-0.680D-01 0.354D-01 0.108D+01
 Coeff:      0.421D-02-0.168D-01-0.362D-01-0.680D-01 0.354D-01 0.108D+01
 Gap=     0.095 Goal=   None    Shift=    0.000
 Gap=     0.208 Goal=   None    Shift=    0.000
 RMSDP=1.84D-05 MaxDP=1.72D-03 DE=-1.46D-07 OVMax= 2.84D-04

 Cycle   7  Pass 1  IDiag  1:
 RMSU=  1.71D-06    CP:  9.98D-01  1.42D+00  1.70D+00  1.91D+00  2.23D+00
                    CP:  1.81D+00
 FoFJK:  IHMeth= 1 ICntrl=     0 DoSepK=T KAlg= 1 I1Cent= 0 FoldK=F
 E= -323.504401719411     Delta-E=       -0.000000024783 Rises=F Damp=F
 DIIS: error= 1.67D-06 at cycle   7 NSaved=   7.
 NSaved= 7 IEnMin= 7 EnMin= -323.504401719411     IErMin= 7 ErrMin= 1.67D-06
 ErrMax= 1.67D-06 EMaxC= 1.00D-01 BMatC= 3.28D-09 BMatP= 1.54D-08
 IDIUse=1 WtCom= 1.00D+00 WtEn= 0.00D+00
 Coeff-Com:  0.653D-03 0.256D-02-0.350D-02-0.662D-01-0.648D-01 0.248D+00
 Coeff-Com:  0.884D+00
 Coeff:      0.653D-03 0.256D-02-0.350D-02-0.662D-01-0.648D-01 0.248D+00
 Coeff:      0.884D+00
 Gap=     0.095 Goal=   None    Shift=    0.000
 Gap=     0.208 Goal=   None    Shift=    0.000
 RMSDP=8.26D-06 MaxDP=7.91D-04 DE=-2.48D-08 OVMax= 1.36D-04

 Cycle   8  Pass 1  IDiag  1:
 RMSU=  6.03D-07    CP:  9.98D-01  1.44D+00  1.76D+00  2.01D+00  2.59D+00
                    CP:  2.24D+00  1.53D+00
 FoFJK:  IHMeth= 1 ICntrl=     0 DoSepK=T KAlg= 1 I1Cent= 0 FoldK=F
 E= -323.504401724295     Delta-E=       -0.000000004885 Rises=F Damp=F
 DIIS: error= 1.33D-06 at cycle   8 NSaved=   8.
 NSaved= 8 IEnMin= 8 EnMin= -323.504401724295     IErMin= 8 ErrMin= 1.33D-06
 ErrMax= 1.33D-06 EMaxC= 1.00D-01 BMatC= 1.33D-09 BMatP= 3.28D-09
 IDIUse=1 WtCom= 1.00D+00 WtEn= 0.00D+00
 Coeff-Com: -0.954D-03 0.645D-02 0.870D-02-0.124D-01-0.419D-01-0.210D+00
 Coeff-Com:  0.424D+00 0.826D+00
 Coeff:     -0.954D-03 0.645D-02 0.870D-02-0.124D-01-0.419D-01-0.210D+00
 Coeff:      0.424D+00 0.826D+00
 Gap=     0.095 Goal=   None    Shift=    0.000
 Gap=     0.208 Goal=   None    Shift=    0.000
 RMSDP=6.06D-06 MaxDP=5.96D-04 DE=-4.88D-09 OVMax= 1.00D-04

 Cycle   9  Pass 1  IDiag  1:
 RMSU=  3.21D-07    CP:  9.98D-01  1.45D+00  1.80D+00  2.07D+00  2.86D+00
                    CP:  2.56D+00  2.08D+00  1.69D+00
 FoFJK:  IHMeth= 1 ICntrl=     0 DoSepK=T KAlg= 1 I1Cent= 0 FoldK=F
 E= -323.504401726172     Delta-E=       -0.000000001877 Rises=F Damp=F
 DIIS: error= 4.05D-07 at cycle   9 NSaved=   9.
 NSaved= 9 IEnMin= 9 EnMin= -323.504401726172     IErMin= 9 ErrMin= 4.05D-07
 ErrMax= 4.05D-07 EMaxC= 1.00D-01 BMatC= 1.85D-10 BMatP= 1.33D-09
 IDIUse=1 WtCom= 1.00D+00 WtEn= 0.00D+00
 Coeff-Com: -0.425D-03 0.170D-02 0.330D-02 0.706D-02-0.163D-02-0.112D+00
 Coeff-Com:  0.113D-01 0.270D+00 0.821D+00
 Coeff:     -0.425D-03 0.170D-02 0.330D-02 0.706D-02-0.163D-02-0.112D+00
 Coeff:      0.113D-01 0.270D+00 0.821D+00
 Gap=     0.095 Goal=   None    Shift=    0.000
 Gap=     0.208 Goal=   None    Shift=    0.000
 RMSDP=2.19D-06 MaxDP=2.12D-04 DE=-1.88D-09 OVMax= 4.60D-05

 Cycle  10  Pass 1  IDiag  1:
 RMSU=  1.27D-07    CP:  9.98D-01  1.46D+00  1.81D+00  2.08D+00  2.96D+00
                    CP:  2.67D+00  2.34D+00  2.21D+00  1.58D+00
 FoFJK:  IHMeth= 1 ICntrl=     0 DoSepK=T KAlg= 1 I1Cent= 0 FoldK=F
 E= -323.504401726587     Delta-E=       -0.000000000415 Rises=F Damp=F
 DIIS: error= 3.33D-07 at cycle  10 NSaved=  10.
 NSaved=10 IEnMin=10 EnMin= -323.504401726587     IErMin=10 ErrMin= 3.33D-07
 ErrMax= 3.33D-07 EMaxC= 1.00D-01 BMatC= 4.71D-11 BMatP= 1.85D-10
 IDIUse=1 WtCom= 1.00D+00 WtEn= 0.00D+00
 Coeff-Com:  0.301D-04-0.757D-03-0.550D-03 0.615D-02 0.971D-02-0.337D-02
 Coeff-Com: -0.887D-01-0.928D-01 0.300D+00 0.870D+00
 Coeff:      0.301D-04-0.757D-03-0.550D-03 0.615D-02 0.971D-02-0.337D-02
 Coeff:     -0.887D-01-0.928D-01 0.300D+00 0.870D+00
 Gap=     0.095 Goal=   None    Shift=    0.000
 Gap=     0.208 Goal=   None    Shift=    0.000
 RMSDP=1.09D-06 MaxDP=9.52D-05 DE=-4.15D-10 OVMax= 3.48D-05

 Cycle  11  Pass 1  IDiag  1:
 RMSU=  9.56D-08    CP:  9.98D-01  1.46D+00  1.81D+00  2.09D+00  3.00D+00
                    CP:  2.73D+00  2.50D+00  2.64D+00  2.14D+00  2.08D+00
 FoFJK:  IHMeth= 1 ICntrl=     0 DoSepK=T KAlg= 1 I1Cent= 0 FoldK=F
 E= -323.504401726780     Delta-E=       -0.000000000193 Rises=F Damp=F
 DIIS: error= 1.84D-07 at cycle  11 NSaved=  11.
 NSaved=11 IEnMin=11 EnMin= -323.504401726780     IErMin=11 ErrMin= 1.84D-07
 ErrMax= 1.84D-07 EMaxC= 1.00D-01 BMatC= 1.68D-11 BMatP= 4.71D-11
 IDIUse=1 WtCom= 1.00D+00 WtEn= 0.00D+00
 Coeff-Com:  0.895D-04-0.295D-03-0.540D-03-0.269D-02-0.105D-02 0.246D-01
 Coeff-Com:  0.294D-01-0.673D-01-0.311D+00 0.766D-01 0.125D+01
 Coeff:      0.895D-04-0.295D-03-0.540D-03-0.269D-02-0.105D-02 0.246D-01
 Coeff:      0.294D-01-0.673D-01-0.311D+00 0.766D-01 0.125D+01
 Gap=     0.095 Goal=   None    Shift=    0.000
 Gap=     0.208 Goal=   None    Shift=    0.000
 RMSDP=5.31D-07 MaxDP=3.44D-05 DE=-1.93D-10 OVMax= 2.78D-05

 Cycle  12  Pass 1  IDiag  1:
 RMSU=  1.27D-07    CP:  9.98D-01  1.46D+00  1.82D+00  2.09D+00  3.00D+00
                    CP:  2.75D+00  2.59D+00  2.95D+00  2.69D+00  3.00D+00
                    CP:  2.67D+00
 FoFJK:  IHMeth= 1 ICntrl=     0 DoSepK=T KAlg= 1 I1Cent= 0 FoldK=F
 E= -323.504401726876     Delta-E=       -0.000000000096 Rises=F Damp=F
 DIIS: error= 1.18D-07 at cycle  12 NSaved=  12.
 NSaved=12 IEnMin=12 EnMin= -323.504401726876     IErMin=12 ErrMin= 1.18D-07
 ErrMax= 1.18D-07 EMaxC= 1.00D-01 BMatC= 4.13D-12 BMatP= 1.68D-11
 IDIUse=1 WtCom= 1.00D+00 WtEn= 0.00D+00
 Coeff-Com: -0.238D-04 0.264D-03 0.315D-03-0.164D-02-0.279D-02-0.301D-02
 Coeff-Com:  0.359D-01 0.211D-01-0.103D+00-0.143D+00-0.243D+00 0.144D+01
 Coeff:     -0.238D-04 0.264D-03 0.315D-03-0.164D-02-0.279D-02-0.301D-02
 Coeff:      0.359D-01 0.211D-01-0.103D+00-0.143D+00-0.243D+00 0.144D+01
 Gap=     0.095 Goal=   None    Shift=    0.000
 Gap=     0.208 Goal=   None    Shift=    0.000
 RMSDP=3.12D-07 MaxDP=2.35D-05 DE=-9.64D-11 OVMax= 1.96D-05

 Cycle  13  Pass 1  IDiag  1:
 RMSU=  2.24D-07    CP:  9.98D-01  1.46D+00  1.82D+00  2.09D+00  3.00D+00
                    CP:  2.76D+00  2.61D+00  3.00D+00  3.00D+00  3.00D+00
                    CP:  3.00D+00  1.13D+00
 FoFJK:  IHMeth= 1 ICntrl=     0 DoSepK=T KAlg= 1 I1Cent= 0 FoldK=F
 E= -323.504401726915     Delta-E=       -0.000000000039 Rises=F Damp=F
 DIIS: error= 5.15D-08 at cycle  13 NSaved=  13.
 NSaved=13 IEnMin=13 EnMin= -323.504401726915     IErMin=13 ErrMin= 5.15D-08
 ErrMax= 5.15D-08 EMaxC= 1.00D-01 BMatC= 1.41D-12 BMatP= 4.13D-12
 IDIUse=1 WtCom= 1.00D+00 WtEn= 0.00D+00
 Coeff-Com: -0.337D-04 0.157D-03 0.264D-03 0.390D-03-0.404D-03-0.905D-02
 Coeff-Com:  0.421D-02 0.231D-01 0.575D-01-0.201D-01-0.538D+00 0.471D+00
 Coeff-Com:  0.101D+01
 Coeff:     -0.337D-04 0.157D-03 0.264D-03 0.390D-03-0.404D-03-0.905D-02
 Coeff:      0.421D-02 0.231D-01 0.575D-01-0.201D-01-0.538D+00 0.471D+00
 Coeff:      0.101D+01
 Gap=     0.095 Goal=   None    Shift=    0.000
 Gap=     0.208 Goal=   None    Shift=    0.000
 RMSDP=1.60D-07 MaxDP=1.24D-05 DE=-3.91D-11 OVMax= 9.15D-06

 Cycle  14  Pass 1  IDiag  1:
 RMSU=  4.16D-08    CP:  9.98D-01  1.46D+00  1.82D+00  2.09D+00  3.00D+00
                    CP:  2.76D+00  2.62D+00  3.00D+00  3.00D+00  3.00D+00
                    CP:  3.00D+00  9.97D-01  1.59D+00
 FoFJK:  IHMeth= 1 ICntrl=     0 DoSepK=T KAlg= 1 I1Cent= 0 FoldK=F
 E= -323.504401726924     Delta-E=       -0.000000000008 Rises=F Damp=F
 DIIS: error= 1.72D-08 at cycle  14 NSaved=  14.
 NSaved=14 IEnMin=14 EnMin= -323.504401726924     IErMin=14 ErrMin= 1.72D-08
 ErrMax= 1.72D-08 EMaxC= 1.00D-01 BMatC= 1.52D-13 BMatP= 1.41D-12
 IDIUse=1 WtCom= 1.00D+00 WtEn= 0.00D+00
 Coeff-Com: -0.372D-06-0.409D-04-0.256D-04 0.468D-03 0.579D-03-0.744D-03
 Coeff-Com: -0.633D-02-0.426D-02 0.277D-01 0.487D-01-0.231D-01-0.216D+00
 Coeff-Com:  0.182D-01 0.115D+01
 Coeff:     -0.372D-06-0.409D-04-0.256D-04 0.468D-03 0.579D-03-0.744D-03
 Coeff:     -0.633D-02-0.426D-02 0.277D-01 0.487D-01-0.231D-01-0.216D+00
 Coeff:      0.182D-01 0.115D+01
 Gap=     0.095 Goal=   None    Shift=    0.000
 Gap=     0.208 Goal=   None    Shift=    0.000
 RMSDP=7.62D-08 MaxDP=8.66D-06 DE=-8.41D-12 OVMax= 2.20D-06

 Cycle  15  Pass 1  IDiag  1:
 RMSU=  3.16D-08    CP:  9.98D-01  1.46D+00  1.82D+00  2.09D+00  3.00D+00
                    CP:  2.76D+00  2.61D+00  3.00D+00  3.00D+00  3.00D+00
                    CP:  3.00D+00  7.85D-01  1.76D+00  1.36D+00
 FoFJK:  IHMeth= 1 ICntrl=     0 DoSepK=T KAlg= 1 I1Cent= 0 FoldK=F
 E= -323.504401726923     Delta-E=        0.000000000000 Rises=F Damp=F
 DIIS: error= 6.74D-09 at cycle  15 NSaved=  15.
 NSaved=15 IEnMin=14 EnMin= -323.504401726924     IErMin=15 ErrMin= 6.74D-09
 ErrMax= 6.74D-09 EMaxC= 1.00D-01 BMatC= 2.83D-14 BMatP= 1.52D-13
 IDIUse=1 WtCom= 1.00D+00 WtEn= 0.00D+00
 Coeff-Com:  0.559D-05-0.248D-04-0.399D-04-0.589D-04 0.291D-04 0.151D-02
 Coeff-Com: -0.104D-04-0.452D-02-0.110D-01 0.781D-02 0.794D-01-0.561D-01
 Coeff-Com: -0.201D+00-0.167D-01 0.120D+01
 Coeff:      0.559D-05-0.248D-04-0.399D-04-0.589D-04 0.291D-04 0.151D-02
 Coeff:     -0.104D-04-0.452D-02-0.110D-01 0.781D-02 0.794D-01-0.561D-01
 Coeff:     -0.201D+00-0.167D-01 0.120D+01
 Gap=     0.095 Goal=   None    Shift=    0.000
 Gap=     0.208 Goal=   None    Shift=    0.000
 RMSDP=3.38D-08 MaxDP=3.70D-06 DE= 4.55D-13 OVMax= 7.59D-07

 Cycle  16  Pass 1  IDiag  1:
 RMSU=  4.16D-09    CP:  9.98D-01  1.46D+00  1.82D+00  2.09D+00  3.00D+00
                    CP:  2.76D+00  2.60D+00  3.00D+00  3.00D+00  3.00D+00
                    CP:  3.00D+00  6.83D-01  1.79D+00  1.51D+00  1.60D+00
 FoFJK:  IHMeth= 1 ICntrl=     0 DoSepK=T KAlg= 1 I1Cent= 0 FoldK=F
 E= -323.504401726924     Delta-E=       -0.000000000001 Rises=F Damp=F
 DIIS: error= 2.22D-09 at cycle  16 NSaved=  16.
 NSaved=16 IEnMin=16 EnMin= -323.504401726924     IErMin=16 ErrMin= 2.22D-09
 ErrMax= 2.22D-09 EMaxC= 1.00D-01 BMatC= 3.95D-15 BMatP= 2.83D-14
 IDIUse=1 WtCom= 1.00D+00 WtEn= 0.00D+00
 Large coefficients: NSaved= 16 BigCof=    0.00 CofMax=   10.00 Det=-6.23D-15
 Inversion failed.  Reducing to 15 matrices.
 Coeff-Com:  0.569D-05 0.294D-05-0.600D-04-0.100D-03 0.124D-03 0.105D-02
 Coeff-Com:  0.429D-03-0.448D-02-0.518D-02 0.875D-03 0.395D-01-0.967D-02
 Coeff-Com: -0.175D+00 0.159D-01 0.114D+01
 Coeff:      0.569D-05 0.294D-05-0.600D-04-0.100D-03 0.124D-03 0.105D-02
 Coeff:      0.429D-03-0.448D-02-0.518D-02 0.875D-03 0.395D-01-0.967D-02
 Coeff:     -0.175D+00 0.159D-01 0.114D+01
 Gap=     0.095 Goal=   None    Shift=    0.000
 Gap=     0.208 Goal=   None    Shift=    0.000
 RMSDP=1.07D-08 MaxDP=1.00D-06 DE=-1.14D-12 OVMax= 2.97D-07

 Cycle  17  Pass 1  IDiag  1:
 RMSU=  1.03D-09    CP:  9.98D-01  1.46D+00  1.82D+00  2.09D+00  3.00D+00
                    CP:  2.76D+00  2.60D+00  3.00D+00  3.00D+00  3.00D+00
                    CP:  3.00D+00  6.51D-01  1.79D+00  1.53D+00  1.80D+00
                    CP:  1.71D+00
 FoFJK:  IHMeth= 1 ICntrl=     0 DoSepK=T KAlg= 1 I1Cent= 0 FoldK=F
 E= -323.504401726923     Delta-E=        0.000000000001 Rises=F Damp=F
 DIIS: error= 1.02D-09 at cycle  17 NSaved=  16.
 NSaved=16 IEnMin=15 EnMin= -323.504401726924     IErMin=16 ErrMin= 1.02D-09
 ErrMax= 1.02D-09 EMaxC= 1.00D-01 BMatC= 9.20D-16 BMatP= 3.95D-15
 IDIUse=1 WtCom= 1.00D+00 WtEn= 0.00D+00
 Large coefficients: NSaved= 16 BigCof=    0.00 CofMax=   10.00 Det=-1.79D-15
 Inversion failed.  Reducing to 15 matrices.
 Coeff-Com: -0.570D-06 0.248D-05-0.770D-05-0.413D-04 0.779D-04 0.266D-03
 Coeff-Com:  0.221D-04-0.854D-03-0.771D-02 0.132D-01 0.178D-01-0.311D-01
 Coeff-Com: -0.162D+00 0.276D+00 0.894D+00
 Coeff:     -0.570D-06 0.248D-05-0.770D-05-0.413D-04 0.779D-04 0.266D-03
 Coeff:      0.221D-04-0.854D-03-0.771D-02 0.132D-01 0.178D-01-0.311D-01
 Coeff:     -0.162D+00 0.276D+00 0.894D+00
 Gap=     0.095 Goal=   None    Shift=    0.000
 Gap=     0.208 Goal=   None    Shift=    0.000
 RMSDP=2.46D-09 MaxDP=2.11D-07 DE= 1.25D-12 OVMax= 1.08D-07

 SCF Done:  E(UwB97XD) =  -323.504401727     A.U. after   17 cycles
             Convg  =    0.2460D-08             -V/T =  2.0075
 <Sx>= 0.0000 <Sy>= 0.0000 <Sz>= 0.5000 <S**2>= 0.7544 S= 0.5022
 <L.S>= 0.000000000000E+00
 KE= 3.210956789511D+02 PE=-1.265928646792D+03 EE= 3.715108496597D+02
 Annihilation of the first spin contaminant:
 S**2 before annihilation     0.7544,   after     0.7500
 Leave Link  502 at Thu Oct 13 23:28:24 2022, MaxMem= 3276800000 cpu:     398.6
 (Enter /local/g09-source/g09/l601.exe)
 Copying SCF densities to generalized density rwf, IOpCl= 1 IROHF=0.

 **********************************************************************

            Population analysis using the SCF density.

 **********************************************************************

 Alpha  occ. eigenvalues --  -19.05999 -19.03930 -14.38684 -10.16292 -10.16175
 Alpha  occ. eigenvalues --  -10.14069  -1.03985  -0.87102  -0.75776  -0.68607
 Alpha  occ. eigenvalues --   -0.59588  -0.48143  -0.42982  -0.42156  -0.38526
 Alpha  occ. eigenvalues --   -0.36502  -0.35409  -0.31452  -0.29615  -0.25829
 Alpha  occ. eigenvalues --   -0.23938  -0.16846  -0.15819  -0.13085  -0.02370
 Alpha virt. eigenvalues --    0.07143   0.07407   0.07420   0.08028   0.15521
 Alpha virt. eigenvalues --    0.17012   0.17239   0.18203   0.20467   0.20927
 Alpha virt. eigenvalues --    0.23314   0.24855   0.25200   0.27054   0.27946
 Alpha virt. eigenvalues --    0.28521   0.29262   0.29642   0.32857   0.33952
 Alpha virt. eigenvalues --    0.36026   0.37693   0.40433   0.41534   0.42965
 Alpha virt. eigenvalues --    0.44202   0.44528   0.45385   0.47776   0.48983
 Alpha virt. eigenvalues --    0.49416   0.51301   0.51481   0.52594   0.53061
 Alpha virt. eigenvalues --    0.53873   0.55389   0.56853   0.58999   0.61855
 Alpha virt. eigenvalues --    0.63898   0.66618   0.68906   0.73701   0.87496
 Alpha virt. eigenvalues --    0.88961   0.90298   0.91449   0.91876   0.98066
 Alpha virt. eigenvalues --    0.99005   1.05887   1.11049   1.14649   1.15002
 Alpha virt. eigenvalues --    1.21989   1.22889   1.26261   1.28222   1.30948
 Alpha virt. eigenvalues --    1.32122   1.36018   1.39024   1.43115   1.48235
 Alpha virt. eigenvalues --    1.49753   1.52499   1.54947   1.57352   1.58196
 Alpha virt. eigenvalues --    1.60555   1.63272   1.65947   1.70673   1.76791
 Alpha virt. eigenvalues --    1.78179   1.86482   1.93077   1.98052   2.00028
 Alpha virt. eigenvalues --    2.05587   2.08971   2.12330   2.14055   2.15403
 Alpha virt. eigenvalues --    2.16905   2.17939   2.22953   2.24898   2.26989
 Alpha virt. eigenvalues --    2.30305   2.31420   2.36192   2.39826   2.45591
 Alpha virt. eigenvalues --    2.48171   2.52094   2.54298   2.55928   2.60579
 Alpha virt. eigenvalues --    2.64121   2.69063   2.70855   2.74543   2.78958
 Alpha virt. eigenvalues --    2.80642   2.88455   2.93926   2.94928   2.98167
 Alpha virt. eigenvalues --    3.01790   3.08182   3.10385   3.18544   3.21917
 Alpha virt. eigenvalues --    3.28953   3.30836   3.33873   3.38058   3.47936
 Alpha virt. eigenvalues --    3.52356   3.74546   3.75811   3.77604   3.85785
 Alpha virt. eigenvalues --    4.00730   4.49542   4.62986   4.67476   4.85741
 Alpha virt. eigenvalues --    4.93920   4.95602
  Beta  occ. eigenvalues --  -19.05361 -19.03512 -14.37688 -10.16361 -10.16176
  Beta  occ. eigenvalues --  -10.13993  -1.02136  -0.85754  -0.75344  -0.67932
  Beta  occ. eigenvalues --   -0.59125  -0.47323  -0.42121  -0.41100  -0.37492
  Beta  occ. eigenvalues --   -0.35772  -0.33502  -0.30885  -0.29114  -0.25701
  Beta  occ. eigenvalues --   -0.22078  -0.15131  -0.12486  -0.12216
  Beta virt. eigenvalues --    0.08551   0.08860   0.08932   0.10290   0.16895
  Beta virt. eigenvalues --    0.18509   0.18745   0.19682   0.21625   0.22109
  Beta virt. eigenvalues --    0.23552   0.24113   0.25664   0.25961   0.27724
  Beta virt. eigenvalues --    0.28784   0.29342   0.30286   0.30481   0.33425
  Beta virt. eigenvalues --    0.34841   0.36499   0.38019   0.40888   0.41893
  Beta virt. eigenvalues --    0.43375   0.44573   0.45133   0.46040   0.48139
  Beta virt. eigenvalues --    0.49402   0.49819   0.51388   0.51823   0.53117
  Beta virt. eigenvalues --    0.53562   0.54249   0.55561   0.57488   0.59245
  Beta virt. eigenvalues --    0.62106   0.64479   0.67326   0.69465   0.74113
  Beta virt. eigenvalues --    0.87671   0.89117   0.90616   0.91557   0.92096
  Beta virt. eigenvalues --    0.98237   0.99250   1.05952   1.11157   1.14834
  Beta virt. eigenvalues --    1.15687   1.22999   1.24123   1.26729   1.28913
  Beta virt. eigenvalues --    1.31199   1.32392   1.36191   1.39283   1.43406
  Beta virt. eigenvalues --    1.49668   1.50139   1.53116   1.56063   1.57933
  Beta virt. eigenvalues --    1.58703   1.61334   1.64066   1.66255   1.71485
  Beta virt. eigenvalues --    1.77452   1.78946   1.87057   1.93372   1.98342
  Beta virt. eigenvalues --    2.00326   2.06079   2.09805   2.13332   2.14528
  Beta virt. eigenvalues --    2.15784   2.17476   2.18302   2.23318   2.25674
  Beta virt. eigenvalues --    2.27322   2.30600   2.32116   2.36751   2.40464
  Beta virt. eigenvalues --    2.46024   2.48830   2.52487   2.54703   2.56452
  Beta virt. eigenvalues --    2.60771   2.64927   2.69330   2.71143   2.75104
  Beta virt. eigenvalues --    2.79572   2.81156   2.89907   2.94363   2.95706
  Beta virt. eigenvalues --    2.98595   3.02087   3.08469   3.10456   3.18967
  Beta virt. eigenvalues --    3.22469   3.29834   3.31096   3.34488   3.38103
  Beta virt. eigenvalues --    3.48485   3.52887   3.74610   3.75821   3.77745
  Beta virt. eigenvalues --    3.85822   4.00801   4.50980   4.63456   4.68039
  Beta virt. eigenvalues --    4.86015   4.94491   4.95931
     Alpha Molecular Orbital Coefficients:
                           1         2         3         4         5
                           O         O         O         O         O
     Eigenvalues --  -.19059987655847E+02 -.19039297632096E+02 -.14386835047624E+02 -.10162918957505E+02 -.10161747915038E+02
   1 1   C  1S       -.21992514118152E-05 -.11196837864832E-04 0.24474428625039E-04 0.99353037607806E+00 0.35019712310553E-02
   2        2S       0.47282744832003E-04 0.22748451679032E-04 0.10382815665015E-03 0.48335115989929E-01 -.58181842705384E-04
   3        3S       0.17861850566843E-03 0.58034126868240E-03 0.81960332873543E-03 -.23849444661933E-01 0.55427811774451E-03
   4        4S       -.45672794016588E-03 0.16210755900384E-02 0.12494715731918E-02 -.19832783234344E-01 -.14428640004357E-01
   5        5PX      0.15388160302316E-04 0.14898402707998E-05 -.80540861395286E-04 0.13389632097238E-04 -.11695906973061E-03
   6        5PY      -.16407382474936E-05 0.75397005604985E-04 -.27270935676928E-03 -.72791822866758E-03 -.47780636411402E-04
   7        5PZ      -.13997289406339E-04 -.18617796564914E-04 0.20631258157078E-03 0.58671167933815E-03 -.62881764681200E-04
   8        6PX      -.17488129553635E-03 0.59821973308010E-04 0.76912993585650E-04 -.14232796926187E-02 0.15970689200369E-03
   9        6PY      -.63649767613368E-04 -.47622407732581E-03 -.24441894118928E-03 0.87146696839830E-03 -.81487361818926E-04
  10        6PZ      0.19765527148653E-03 0.53259021784297E-04 0.11334111796404E-03 -.16147543210290E-02 0.19200995433408E-03
  11        7PX      0.15295040120843E-02 -.11816303926799E-02 0.13848804499046E-03 -.10053966635019E-02 -.32965361629603E-02
  12        7PY      0.12594662624564E-04 -.48381763682704E-03 0.65764080361420E-04 0.16610027154066E-02 -.15250706128302E-02
  13        7PZ      -.40818921199167E-03 0.14770674379546E-02 0.14523529561147E-03 -.25044936083962E-02 -.15083932802593E-02
  14        8XX      -.64886674753765E-04 -.65432801455557E-04 -.75229035511474E-06 -.76233793315129E-02 -.15213161367788E-03
  15        8YY      0.19045426573747E-04 -.13442392680841E-03 0.34522433780868E-04 -.72576261547782E-02 -.12021501896137E-03
  16        8ZZ      -.45304189899859E-04 -.26083489198950E-04 0.18088129033539E-04 -.75278137634853E-02 -.83351189245003E-04
  17        8XY      -.64699717941158E-04 0.77068402388335E-04 -.53589126904630E-05 -.19711606538414E-03 0.20463361923736E-04
  18        8XZ      0.64464462875276E-04 -.37546856747844E-04 -.20506032205042E-04 -.70439219286140E-04 0.20178856956483E-06
  19        8YZ      -.47114817717976E-05 0.23599326720013E-04 -.33458855141668E-04 -.21044321778784E-03 0.30409939741439E-04
  20 2   C  1S       -.73367324557251E-05 0.20563886659585E-04 0.49099876269194E-05 0.39213541459630E-02 0.31426675937972E-02
  21        2S       -.32354541395370E-04 0.69317522806649E-04 0.68339409455264E-04 -.53043113504519E-04 -.10025772018772E-03
  22        3S       0.36403239007726E-03 -.56813700461640E-03 -.17260912167795E-03 0.49109386012027E-02 0.52589929285439E-02
  23        4S       0.33322157761108E-02 0.16085360424788E-02 -.80596033220035E-03 0.10567391123020E-01 0.16518774923205E-01
  24        5PX      -.14784181383341E-05 0.67707905453947E-05 0.27360709024675E-04 -.38923292919314E-04 0.16755113695808E-04
  25        5PY      0.68435847085837E-05 -.30890502763881E-04 0.17026916776378E-04 -.53449904336431E-04 0.81285858680887E-04
  26        5PZ      0.53758282650654E-06 -.20687810286374E-04 0.15210312180468E-05 0.24981090239391E-05 -.54185419716115E-05
  27        6PX      -.10832994994299E-03 0.30669986004995E-04 0.67527337137400E-04 -.21263317555532E-02 0.67505331919714E-03
  28        6PY      -.16748849987550E-03 0.12539122148158E-03 0.18244171814857E-03 -.13235710329677E-02 0.63346898671269E-03
  29        6PZ      -.13524565187710E-03 0.13615840649828E-03 -.41249673593668E-04 -.16578305564450E-03 0.25879253959951E-02
  30        7PX      -.63889051411045E-03 -.32112617099845E-03 0.13159223053234E-03 -.12885793085272E-02 -.33017173069039E-02
  31        7PY      -.29346353916763E-03 -.42472659789890E-03 0.26229100528098E-04 -.65165697095449E-03 -.23165038091271E-02
  32        7PZ      0.12558675470052E-02 -.28098746390941E-03 -.95634880337912E-04 0.14698734752223E-02 0.13646522093099E-02
  33        8XX      0.40980155052985E-05 0.33312894726941E-04 -.18130710794633E-04 -.38463383942362E-03 -.17569405683648E-03
  34        8YY      -.15801297756311E-04 0.41312795748238E-04 -.47855007579925E-04 -.19076471606500E-03 -.19775251425161E-03
  35        8ZZ      -.94338884394681E-05 0.47926857296622E-04 0.91057364097092E-06 -.17875631196824E-03 -.38520267065248E-03
  36        8XY      0.55765513872848E-05 -.90753785566644E-05 -.45827707360269E-04 -.35720373075194E-04 -.74263998398816E-04
  37        8XZ      0.15914818100425E-04 0.50279643935976E-05 0.21848264558410E-04 -.81496559626520E-04 -.26588674730173E-05
  38        8YZ      0.79145818410759E-05 -.11155107716460E-05 0.13453148782382E-04 -.50275375305696E-04 -.76035490264322E-04
  39 3   N  1S       -.34573059176599E-04 -.21204503628370E-04 0.99278233065713E+00 -.19379322225927E-03 0.21572284017688E-04
  40        2S       0.21696409679542E-03 0.20418655024480E-03 0.34391115014392E-01 0.22508486935855E-04 0.99326696191053E-04
  41        3S       0.38817371335765E-03 -.18123215919422E-03 0.28490934028684E-02 0.19644114974640E-02 -.45273244387839E-03
  42        4S       0.80723446145660E-02 0.45195092324808E-02 -.36214127682886E-04 0.18987159211997E-01 -.98048077698377E-04
  43        5S       0.21472783151389E-03 -.14344665641576E-03 -.20409016518390E-03 0.21085353460256E-02 -.20513678773246E-03
  44        6S       -.13563520518310E-04 0.15770385015711E-04 0.25997876127754E-04 -.31456286735994E-03 0.61173206634415E-04
  45        7PX      -.27551888167450E-03 0.26726872219584E-03 -.10215268041606E-03 -.27716447310919E-04 -.10783312905312E-05
  46        7PY      -.64144876596720E-04 -.18921441549245E-03 -.54128584588373E-04 -.12036983348429E-03 -.41764939925320E-04
  47        7PZ      0.15941467056299E-03 -.26455551171701E-04 -.71493326939226E-04 0.12504461652704E-03 -.34559313388512E-04
  48        8PX      0.14002480046411E-03 -.10742958249970E-03 -.17076430729405E-03 -.74419408015853E-03 -.22442913818071E-03
  49        8PY      -.39971632175517E-04 -.20899500002924E-03 -.73778714743740E-04 0.16922144634763E-02 -.25130544150718E-03
  50        8PZ      -.50584995264513E-04 0.13680487153565E-03 0.30530309070432E-03 -.33720114168886E-03 0.30738708616010E-03
  51        9PX      -.90486133215598E-02 0.72922213549643E-02 0.98862086848985E-04 0.21496737345726E-03 0.95527506401781E-03
  52        9PY      -.15038234230901E-03 -.31152282016071E-02 -.33052958678751E-03 0.59639946177328E-02 0.19102904985072E-02
  53        9PZ      0.44809283325509E-02 -.14734711582195E-02 -.10626106477726E-04 -.27817654663799E-02 -.11789435745053E-02
  54       10PX      0.68440101975421E-04 0.12843303227279E-04 -.26919638310328E-04 -.34777609120657E-04 -.28731506882305E-03
  55       10PY      0.24046505927469E-03 0.75975504931378E-04 -.36369007895074E-04 0.37868473789359E-03 -.17183527043852E-03
  56       10PZ      -.71350129002099E-04 0.53871341341417E-04 0.21580099141120E-04 -.26081641236922E-03 0.26084106001624E-03
  57       11PX      -.13136347892637E-04 -.56554493971036E-05 0.56165882386674E-05 0.14470430983462E-04 0.97704982826993E-04
  58       11PY      -.39956225461705E-04 -.17810286187067E-04 0.46215049873985E-05 -.46676813114451E-04 0.73193758211918E-04
  59       11PZ      0.20268284689117E-05 -.23497560556635E-04 -.47046804282051E-05 0.22966508146513E-04 -.57303264233435E-04
  60       12XX      -.20521774852512E-03 -.71627837950632E-05 -.80785609066214E-02 -.24282635381070E-03 0.49138061014186E-04
  61       12YY      -.86294335286463E-04 -.71657494380985E-05 -.80971785311352E-02 -.30514959630182E-03 0.20593751806317E-04
  62       12ZZ      -.15023469935304E-03 -.47631769496468E-04 -.79353441975120E-02 -.16948298187297E-03 0.60424668976657E-04
  63       12XY      -.45303088610888E-04 -.17636696341265E-04 0.99832072684359E-04 0.97736576930558E-04 -.23815406769307E-04
  64       12XZ      0.78499089183615E-04 -.34949070149511E-04 0.85157752057718E-04 0.19306023451519E-03 -.29254150054799E-04
  65       12YZ      0.63498942200183E-06 -.27705281457447E-04 0.11333385716313E-03 0.34717572222881E-03 -.33401324278120E-04
  66 4   H  1S       0.25843625534401E-04 0.18047910620671E-04 -.70348945610638E-04 -.10537442952566E-03 0.27515828980967E-04
  67        2S       -.29038303408089E-03 0.23460661933771E-03 -.11794331502773E-03 0.27747727520516E-02 -.51863206118738E-03
  68        3PX      -.29041977760333E-04 0.35719809727356E-04 -.20287160693219E-04 -.14903677451454E-03 -.51623399855233E-04
  69        3PY      -.13273324722099E-04 -.12232604541363E-04 0.78902203318526E-04 0.17120503993568E-03 -.40202738958172E-04
  70        3PZ      0.14680319911259E-04 -.91949723772229E-05 -.39725387660618E-04 0.49341780754680E-04 -.67439389642890E-04
  71 5   H  1S       -.29803006232146E-04 0.19312327461815E-04 -.81521999764360E-04 0.18072259125016E-03 -.35470910896495E-04
  72        2S       0.47532654085486E-03 -.43013522799777E-03 -.20404677237590E-03 0.27267362755270E-02 0.38097927810474E-05
  73        3PX      0.12392167127778E-04 0.10202524808204E-04 0.85043758425042E-05 0.74126963742778E-04 0.17123688864253E-04
  74        3PY      0.12227190344750E-04 -.96295068562701E-05 0.21539261676831E-04 -.13715446623261E-03 0.26037626935424E-04
  75        3PZ      0.84536226746971E-05 -.16315617850399E-04 -.70581929145754E-04 -.14760099648467E-03 0.10013078531591E-04
  76 6   O  1S       0.99269800963014E+00 0.15728208589095E-03 -.32812026802281E-04 0.25108108979674E-05 0.46933454451006E-04
  77        2S       0.24730343736141E-01 0.15034452497826E-03 0.15368426005300E-03 -.62696196230311E-04 0.20382329736944E-03
  78        3S       0.15685262578731E-01 -.71847930315871E-03 0.22785283041381E-04 -.21748859748024E-03 -.11614853223776E-02
  79        4S       -.18795752428745E-01 0.49193024814508E-02 -.49677716364524E-03 -.26137510645429E-02 0.27824066204077E-02
  80        5PX      0.10709335657789E-02 -.22555874638849E-04 0.21507340138712E-03 0.25449656761133E-04 0.13303737901815E-04
  81        5PY      0.29909934574289E-03 0.73465819554604E-05 0.55665287252748E-04 -.31149793490302E-04 0.17730280558459E-04
  82        5PZ      -.65894408157238E-03 0.26345530067366E-05 -.12538981389106E-03 0.20061119079542E-04 0.12747797683493E-04
  83        6PX      -.52111989954502E-03 0.45741783140552E-04 0.78611196342693E-04 0.11839192702455E-03 -.22111628885136E-03
  84        6PY      -.13389506043984E-03 0.10733113631163E-04 0.16564825001122E-04 -.24094603533976E-04 -.86760085767051E-04
  85        6PZ      0.33496158885232E-03 -.33547750494349E-05 -.79609063309245E-04 -.13055214317864E-03 0.10766749437076E-04
  86        7PX      -.25034387213789E-02 0.37417704149861E-03 -.24865374927737E-03 -.65642548513711E-03 0.61751182549727E-03
  87        7PY      -.90442944978457E-03 0.71754847500234E-03 -.36977741312745E-04 -.14034355778205E-02 -.52746555048817E-04
  88        7PZ      0.14839924657437E-02 -.71849072923173E-03 0.15175167801015E-03 0.87743161946412E-03 0.23803916818465E-04
  89        8XX      -.83896489510857E-02 -.32206290697020E-05 -.11661100458799E-04 0.11173490215748E-03 0.97749979512783E-04
  90        8YY      -.83367576030067E-02 0.99906580163054E-04 0.12030506728076E-04 0.63477422445581E-05 0.13662157154870E-03
  91        8ZZ      -.83138258967482E-02 0.87635896776796E-04 0.27052376279982E-05 0.46117692487305E-06 0.14509995453847E-03
  92        8XY      0.47593681917651E-05 0.50741644813423E-04 -.19890273951826E-05 0.92735927286136E-05 -.21720551232155E-04
  93        8XZ      0.67257085814839E-04 0.18524198741589E-04 0.47613513059297E-05 -.13848730849846E-03 0.16300337972946E-04
  94        8YZ      0.37280451799392E-04 -.33546211974863E-04 -.53722261224483E-05 -.97707689990248E-04 0.34868892840258E-05
  95 7   O  1S       -.10063127473671E-03 0.99274927304640E+00 -.31851751346467E-04 -.76850212603729E-04 0.29654501365395E-04
  96        2S       0.14550593390735E-03 0.24714979477906E-01 0.10994541670140E-03 -.47978072008635E-03 0.12659264093541E-03
  97        3S       -.78731180708865E-03 0.15068464905812E-01 0.22161546765780E-03 0.21502720546520E-02 -.42611301912852E-03
  98        4S       0.54444586486908E-02 -.15935843027797E-01 -.62030148886280E-03 -.90804596465382E-03 0.17763000561491E-03
  99        5PX      0.11755786911066E-04 -.88368604752671E-03 -.20632427525223E-03 -.41719168888092E-06 -.16163575826104E-04
 100        5PY      -.37374443485002E-05 0.70063081872358E-03 0.16971800349403E-03 -.83569847652517E-04 0.35370516477539E-04
 101        5PZ      -.92209759815798E-05 0.80177073777353E-04 0.14921907490381E-04 0.59373199602548E-04 -.29676408486990E-05
 102        6PX      -.30874566956550E-04 0.54345975854307E-03 -.22297927239768E-03 -.70348960680482E-03 0.13856198103156E-03
 103        6PY      0.52274445224097E-04 -.36643822935149E-03 0.14454409423595E-03 0.12977528240049E-02 -.12256218464569E-03
 104        6PZ      0.12546873463703E-04 -.63213327632339E-04 0.81161636391242E-05 -.40141485449531E-03 -.25189434800303E-04
 105        7PX      -.43339868621790E-03 0.16567334073042E-02 0.22383177581571E-03 -.29050030260690E-04 -.57116097355091E-03
 106        7PY      0.11743584594698E-02 -.21456975619664E-02 -.13753100097050E-03 -.17047067446871E-02 -.78774359424172E-03
 107        7PZ      -.50008669796071E-03 0.71025990046519E-04 0.15605719060370E-04 0.35245136968192E-03 0.12324618749195E-03
 108        8XX      0.10069132245815E-04 -.83274929122733E-02 0.54657552698546E-04 -.16799350930897E-03 0.93199057975530E-04
 109        8YY      0.14261378013401E-03 -.82824751860274E-02 0.23148370839474E-04 0.31701334676321E-04 0.33997786570813E-04
 110        8ZZ      0.75188592487977E-04 -.81968788342431E-02 -.21424623160309E-04 -.28252538499840E-03 0.12652362837882E-03
 111        8XY      -.15973873127048E-04 0.10875750738132E-03 -.59478072715759E-04 -.23039123579572E-03 0.71219545260468E-05
 112        8XZ      0.46577364522652E-04 0.34185014041881E-04 -.43308728574829E-05 -.26950390892952E-05 0.15884317029870E-04
 113        8YZ      -.29258979830040E-04 0.19600226303168E-04 0.10463932078715E-04 -.19807333137597E-03 -.12599923307368E-04
 114 8   C  1S       -.13162450770237E-04 -.50847779831601E-05 0.83049160454360E-05 -.36224613919736E-02 0.99340240593048E+00
 115        2S       -.44408689426606E-04 -.10329289991938E-04 0.22042173914140E-04 -.40178060596909E-03 0.47401512861402E-01
 116        3S       0.37907508039700E-03 -.53634493575175E-05 -.67892274360527E-04 0.46339711148071E-03 -.19202378757510E-01
 117        4S       -.30879566762471E-02 -.98088746441715E-03 0.28422201233664E-03 -.39273470117149E-02 -.27993454050450E-02
 118        5PX      -.77639049648549E-05 0.17048835598460E-05 -.13289995463193E-04 0.92088256812322E-04 -.74185117155638E-04
 119        5PY      -.20036557665809E-05 0.38081572379652E-05 -.11467616318598E-04 0.10079165817522E-03 0.40460906049826E-04
 120        5PZ      -.10482528753558E-04 -.39208618904312E-05 -.66573601983726E-05 0.90951129000113E-04 -.10586965696014E-03
 121        6PX      0.76487655042376E-04 -.18450864661622E-04 0.70454673643838E-04 -.39018176024038E-03 0.96626141903769E-03
 122        6PY      0.81984880224054E-04 -.18401052954920E-04 0.28773677479292E-04 -.54724108702726E-03 0.13185244794220E-02
 123        6PZ      -.33692729056928E-04 0.11320673825851E-03 0.35559739950123E-04 0.18896082500926E-03 0.21874002345152E-02
 124        7PX      0.45511518268124E-03 0.27918670121390E-03 -.11392180935634E-04 0.38040575591141E-04 0.42051482124378E-05
 125        7PY      0.66036717500927E-03 0.39336540263108E-03 -.36294705199846E-04 0.36839903487393E-03 0.29273627061177E-03
 126        7PZ      0.46713375423102E-03 0.11474915888942E-03 -.47845587894856E-04 0.10564153974697E-02 0.32338813332727E-03
 127        8XX      -.24749729155469E-04 -.22132987786221E-04 0.16976104517599E-04 -.49469538997363E-04 -.77094483692675E-02
 128        8YY      -.20620582976524E-04 -.62704852883823E-05 0.27173979489931E-04 -.92716818626118E-04 -.75106184700278E-02
 129        8ZZ      -.27554678370421E-04 -.11051007985385E-04 0.11439521887955E-04 -.79205443989974E-04 -.79587140464578E-02
 130        8XY      0.19550129948791E-05 -.20240604747806E-05 0.11351874528039E-05 0.41658790312659E-04 0.28653475161661E-03
 131        8XZ      -.57204212999684E-06 0.65601360126094E-06 -.28354344454204E-05 0.11201527533991E-04 -.14200832318322E-04
 132        8YZ      0.53559029355689E-05 -.45305709858176E-05 0.15053711874072E-05 -.13053512465410E-05 -.33698476807382E-03
 133 9   H  1S       0.32826995849285E-06 0.61091180378509E-04 0.22013875308743E-04 -.78383895161099E-04 -.18872721039063E-03
 134        2S       -.15721431092830E-05 -.56069130038359E-04 0.61551550314920E-05 -.17342028092599E-03 -.12553251104470E-02
 135        3PX      0.46211752881843E-05 0.19011816773291E-04 0.94938157850681E-05 -.16754113238132E-03 -.10527955022822E-04
 136        3PY      0.23090217175214E-05 -.26242285812356E-04 -.70073158245170E-05 -.33141284578716E-04 -.12478428714699E-04
 137        3PZ      0.32567631421045E-05 -.75125029698443E-05 0.21392886427295E-05 -.57894716821581E-06 -.91857779749451E-04
 138 10  H  1S       0.60383737186000E-05 0.59413689409675E-05 -.37795576389843E-05 -.15681511235179E-03 -.86707986276253E-04
 139        2S       -.11760827287235E-03 0.44536134514488E-04 -.44177828779188E-04 -.23694601640563E-03 -.28374615321833E-03
 140        3PX      0.37105914601696E-05 0.10501716124072E-05 0.17931699029071E-05 -.30507575020781E-04 -.16743938473408E-04
 141        3PY      0.52706706606483E-05 0.26887311538806E-05 -.72111806495622E-05 -.15081969258115E-04 -.55442779993902E-04
 142        3PZ      0.66803975716171E-05 -.49226844246100E-05 0.24109536154153E-05 0.12872930466276E-04 -.12506317028864E-04
 143 11  H  1S       -.18364114335319E-04 -.18659528954588E-05 0.13407155516932E-04 -.48061521185021E-04 -.27116471380808E-03
 144        2S       0.10001548212316E-03 -.24018783487195E-03 -.11323241011060E-04 -.94972023584952E-03 0.34154453419216E-02
 145        3PX      0.62631509933572E-05 0.24166469710549E-05 -.57752831644364E-05 0.74326966925520E-04 -.21131439542146E-04
 146        3PY      0.24915126574163E-05 -.13969463112699E-04 -.78775465900517E-05 0.49105124554302E-04 -.18184290381134E-03
 147        3PZ      -.14601010011549E-04 -.70960922807756E-05 0.13141270365466E-05 0.65521379795144E-04 0.69982441510002E-04
 148 12  H  1S       -.13543495385151E-04 0.60127719509224E-06 -.43341082719268E-05 0.96613861910186E-05 -.47728917665676E-03
 149        2S       -.17345593900909E-03 0.48041751536904E-04 -.55713771795466E-04 0.63861385994091E-03 0.28956451737163E-02
 150        3PX      0.77789359220556E-06 -.27330671370092E-05 0.32171664948654E-05 -.26970072354753E-04 0.19971729947889E-03
 151        3PY      0.49921941397032E-05 -.29274757028899E-05 0.91303272763038E-05 -.36330791362741E-04 0.19366884842044E-03
 152        3PZ      0.78815373588370E-06 -.55810223698266E-05 -.49444244493816E-06 -.32079812366416E-04 -.70525361707032E-04
 153 13  H  1S       0.11795251534297E-05 -.68052176990705E-05 0.30192289953990E-04 -.14230554588478E-03 0.19856882571825E-03
 154        2S       -.15849896616268E-03 -.34308024696432E-04 -.14113404011844E-04 0.22919645110004E-04 0.27162930968102E-02
 155        3PX      0.55354492226376E-05 0.72632912219784E-06 -.14539917775227E-05 -.91470291052741E-05 -.19678709836142E-03
 156        3PY      0.11259475013493E-04 0.67481836168497E-05 -.61101921134296E-05 -.24485289555990E-04 0.61864380275523E-04
 157        3PZ      0.13502397994135E-05 0.31716532848791E-05 -.12489481461535E-05 -.25862577281545E-04 -.10204588542319E-04
                           6         7         8         9        10
                           O         O         O         O         O
     Eigenvalues --  -.10140689911732E+02 -.10398486182884E+01 -.87101702664380E+00 -.75776148630271E+00 -.68606815232640E+00
   1 1   C  1S       -.41789670498658E-02 -.51671054486536E-01 0.27650587030507E-01 -.12978224254285E+00 0.89123644641399E-01
   2        2S       -.46878907857437E-03 0.96981751459387E-01 -.53518993639201E-01 0.24393139991394E+00 -.17630747052295E+00
   3        3S       0.50624512082624E-02 0.11045141821305E-01 -.34492220565113E-01 0.20203458024537E+00 -.13757860495235E+00
   4        4S       0.10720580798625E-02 0.47329009400064E-01 -.45513182024872E-01 0.60468719374551E-01 -.33081290968897E-01
   5        5PX      0.88308595298295E-05 -.97429430755345E-02 -.30614171941743E-01 0.22714766280339E-01 0.65979520861703E-01
   6        5PY      0.57352674472636E-04 -.61489246234054E-01 0.32975837738524E-01 -.89070078700092E-02 0.10820290156677E+00
   7        5PZ      0.18179224374129E-04 0.45465586917055E-01 -.90507070387571E-02 0.41172085896780E-01 -.53303053309049E-01
   8        6PX      0.26425697043976E-02 -.24238877685664E-02 -.18894793172617E-01 0.94370485839924E-02 0.89113302421750E-02
   9        6PY      0.23719093737516E-02 0.12658325353680E-01 0.85366792187820E-02 0.73931086856322E-02 0.13469830818753E-02
  10        6PZ      -.16083832832925E-04 -.57350621083995E-02 0.66216207301581E-02 0.53107779349905E-02 0.41732860305237E-04
  11        7PX      0.11591338247158E-03 -.13021629900710E-02 0.17308202314675E-01 0.52629774125416E-03 0.54347450726094E-02
  12        7PY      -.47568240346461E-04 -.11324710293152E-01 0.41549429507922E-02 -.16735118788899E-01 0.21091113439920E-01
  13        7PZ      0.29844164167732E-03 0.13061881567779E-01 -.17631051332614E-01 0.10303582596411E-01 -.44506041609981E-02
  14        8XX      -.24416150292857E-03 -.56963644599036E-02 0.35349809762606E-02 -.14453737512621E-02 0.11104677687358E-01
  15        8YY      -.18685003556656E-03 0.54441509848381E-02 -.46212544244726E-02 -.18693740173470E-02 -.21666594431890E-02
  16        8ZZ      -.11111600719767E-03 0.77805665798949E-03 0.25918645693966E-02 -.53333634147786E-02 0.15863216726688E-02
  17        8XY      -.66449736566143E-04 0.41572135090052E-02 0.42375910951769E-02 0.54534322111213E-02 0.69936418939351E-03
  18        8XZ      0.11488174652927E-05 -.24314008970620E-02 -.44088452829364E-02 -.13552017496635E-02 0.36456107539168E-02
  19        8YZ      0.21100372985456E-04 -.10290150189642E-01 0.27149932815243E-02 -.44960050662867E-02 0.97742383515090E-02
  20 2   C  1S       0.99344335818016E+00 -.83400212328623E-02 0.15544988632799E-01 -.11924831772806E+00 -.81188333730449E-01
  21        2S       0.48653982842609E-01 0.14607048393558E-01 -.27598338611699E-01 0.21774639283920E+00 0.14985062645525E+00
  22        3S       -.24202608476765E-01 0.99676292182520E-02 -.11634981953559E-01 0.17594974080946E+00 0.13777907620009E+00
  23        4S       -.39050490384851E-02 -.16295348884914E-01 0.56089514427974E-01 -.47610654728626E-02 -.17014789576087E-01
  24        5PX      -.10984750505355E-03 -.85734665697174E-02 0.74903758845201E-02 -.38089689383128E-01 0.39257311161460E-01
  25        5PY      0.10925745276282E-05 -.87865309529164E-02 0.11899780683528E-01 -.15776464859796E-01 0.45374078385810E-01
  26        5PZ      -.22608408809179E-03 0.14275876412065E-02 0.86449658486530E-04 0.92639694469730E-02 0.41291567534272E-01
  27        6PX      0.18791246394926E-02 -.43883045585255E-02 0.16453695573224E-03 -.80818951493265E-02 0.93079855317964E-03
  28        6PY      0.12777064459922E-02 -.43444424813262E-02 -.14901501152295E-02 0.48574117205061E-02 0.13783208608960E-01
  29        6PZ      -.56358581801413E-03 -.10419924279694E-02 -.88767088023585E-02 -.10996858530966E-02 0.69304263263796E-02
  30        7PX      0.24596215706433E-03 -.14357625815705E-02 -.91437856578369E-02 -.48551427324254E-03 0.44597541568797E-02
  31        7PY      0.31484181167703E-03 0.49604764408382E-03 -.81632931899386E-04 0.42860724734953E-02 -.40708455724802E-02
  32        7PZ      -.17131913750436E-04 -.83627880203726E-02 0.22536775256760E-01 -.65777799277749E-02 -.57595077445327E-02
  33        8XX      -.79018033438913E-02 0.14632118641619E-02 -.33563427067625E-03 0.32477624920058E-03 -.77403376372299E-02
  34        8YY      -.76476610660177E-02 0.11380759648187E-02 -.58736591925448E-03 -.34019315406420E-02 -.28255331660322E-02
  35        8ZZ      -.77550632660336E-02 -.43322707850103E-03 0.68861987361643E-03 -.11183032061670E-02 0.54329954921491E-02
  36        8XY      -.26321756153270E-03 0.20790261002274E-02 -.12453947789546E-02 0.40185601869743E-02 -.35703237718101E-02
  37        8XZ      -.94309158570161E-04 -.16039353162100E-03 0.34132894882654E-04 0.21339332047251E-03 0.59142064023149E-04
  38        8YZ      -.19513877481527E-03 -.17243684143793E-03 -.75029468170927E-04 0.28913662654307E-02 0.38402915021495E-02
  39 3   N  1S       -.32328175390540E-04 -.16481183236331E+00 0.13335517048885E-01 -.22310749692876E-01 0.54998532606135E-01
  40        2S       -.14798423862799E-03 0.34652189319670E+00 -.28878189431510E-01 0.47925833778387E-01 -.12163168808729E+00
  41        3S       -.28269394093359E-03 0.26643163608956E+00 -.28949015398290E-01 0.61857839139301E-01 -.14878885757794E+00
  42        4S       -.46896355531295E-03 0.11496563402308E+00 0.36715875965388E-01 -.16967912683571E+00 0.16205972533700E+00
  43        5S       0.35886462876665E-03 -.23174965087200E-01 0.79149309018109E-02 -.40018744498931E-02 0.23226402350432E-02
  44        6S       -.34146873387473E-04 0.44182378426622E-02 -.86121485700081E-03 0.35532775030088E-03 -.74744590254013E-03
  45        7PX      -.72116801001674E-04 -.21953780501149E-01 -.25399745553959E+00 -.13841329844599E-01 -.34094974575885E-02
  46        7PY      -.56016151658164E-04 -.28876311206893E-01 0.33967724540498E-01 0.17249727447096E+00 -.17544332904558E+00
  47        7PZ      0.34425624048558E-04 0.15853296361625E-01 0.10727826502040E+00 -.84931284680581E-01 0.12905637150862E+00
  48        8PX      0.14482042431131E-02 0.86112890259603E-02 -.33211916048256E-01 -.89685827246443E-02 0.27250427333741E-02
  49        8PY      0.25215910608919E-03 0.22599445822986E-01 0.50234221916926E-02 0.36304606956301E-01 -.48170991429174E-01
  50        8PZ      -.11874675602962E-02 -.17955755550219E-01 0.13366077212819E-01 -.15417435939182E-01 0.35831965288593E-01
  51        9PX      0.31180168284216E-02 -.44781208726010E-01 -.15806729742456E+00 -.37020696445766E-01 0.20704807427048E-01
  52        9PY      0.19387679314407E-02 -.53536819818602E-01 0.39815591022393E-01 0.87903568564690E-02 -.18833374856111E-01
  53        9PZ      -.28311935835179E-02 0.48322707149806E-01 0.57495793042840E-01 0.96162584183822E-02 -.66302726865117E-03
  54       10PX      0.20436528924820E-04 0.30968272483183E-02 0.93461309234944E-02 0.22861332432953E-02 -.20699824923498E-02
  55       10PY      -.30759679417080E-04 0.25698690378037E-02 -.12704785111692E-03 -.14846001451780E-02 0.10634061216516E-02
  56       10PZ      0.31445259664838E-04 -.29220492339184E-02 -.43266713307259E-02 0.59480450592964E-03 -.38451616332469E-03
  57       11PX      0.19226439578612E-04 -.98705057182256E-03 -.21215870256816E-02 -.71922001929038E-03 0.20229405302979E-03
  58       11PY      0.14911768637932E-04 -.79535587041960E-03 0.37870454713662E-03 0.27316197322346E-03 -.62334731968541E-03
  59       11PZ      -.44435432477900E-04 0.73440736798976E-03 0.90250626040373E-03 0.65350570557566E-04 -.62979142137560E-04
  60       12XX      -.12612971055723E-03 0.66613389999651E-02 0.37214700079042E-02 -.10762007663464E-01 0.13929965365831E-01
  61       12YY      0.13248583639231E-05 -.97567186432046E-02 -.86612219039653E-02 0.33602103916931E-02 -.98327069751361E-03
  62       12ZZ      -.12348555562248E-03 -.10393607825586E-01 0.46323695423183E-02 0.35330367271350E-02 -.19198095392912E-02
  63       12XY      -.35421962411708E-04 -.32283897836519E-02 0.16992204151566E-01 0.88199370541595E-02 -.40754242057342E-02
  64       12XZ      0.13013389381430E-03 -.11317698169738E-01 -.92788478373429E-02 0.20968239635543E-02 -.41571156652347E-02
  65       12YZ      -.73253056949579E-04 -.28307133548301E-02 -.31783159401001E-02 -.67917229406741E-02 0.64783937823342E-02
  66 4   H  1S       -.20163639405679E-03 0.16743405605368E-01 -.24148703443753E-02 0.72205326838079E-01 -.49313753654513E-01
  67        2S       -.38876914864463E-03 0.35041299675064E-02 -.10122000096368E-01 0.10194997363576E-01 -.74182900867651E-02
  68        3PX      0.36726330064254E-04 0.17808786913753E-02 -.48868133442408E-03 0.56656190138537E-02 -.27949897931059E-02
  69        3PY      -.48294349826724E-04 -.24296057233493E-02 0.25662942248502E-03 -.41327615141891E-02 0.43139078691605E-02
  70        3PZ      0.27017931418835E-04 0.50724390675380E-03 -.81809378789114E-04 0.13177541891925E-03 -.36073228472501E-04
  71 5   H  1S       -.71536562029643E-04 0.14709395557545E-01 -.14674474646830E-01 0.54358308401978E-01 -.40921541593614E-01
  72        2S       -.71518094182131E-03 0.12124167261422E-01 0.62420164917718E-02 0.12067285145269E-01 -.12593121116781E-01
  73        3PX      0.91712201916609E-04 0.96139760478282E-04 -.21017196828741E-04 -.60101718422590E-03 0.14261361177286E-02
  74        3PY      0.67024912032781E-04 0.35231038333355E-03 0.30563086811077E-03 0.29288995151014E-02 -.10674931378258E-02
  75        3PZ      -.11527114176303E-04 0.25300679129418E-02 -.16630520043306E-02 0.56060091594929E-02 -.44228274900710E-02
  76 6   O  1S       -.20438198305318E-04 -.11326556208341E+00 -.14695897728936E+00 0.32007096759284E-01 -.52979639202237E-01
  77        2S       -.12868056213678E-03 0.24095403111884E+00 0.31911101483430E+00 -.71286750582985E-01 0.11852836169408E+00
  78        3S       0.11096750828649E-02 0.24192279033786E+00 0.35750621208983E+00 -.87479325456123E-01 0.14959909341895E+00
  79        4S       0.42757016441281E-02 -.15916257311923E+00 -.21615408871496E+00 0.15494348406373E-01 -.35075007367847E-01
  80        5PX      -.11713711902098E-05 0.99953706572133E-01 0.77364937175190E-01 -.18118462447326E-01 0.11480042822562E-01
  81        5PY      -.70743672460330E-05 0.24176815306285E-01 0.30889819578859E-01 0.20107040646183E-01 -.25596467524321E-01
  82        5PZ      0.14396842457967E-04 -.59479409807254E-01 -.50986335209642E-01 -.22929762999268E-02 0.14319272145525E-01
  83        6PX      0.78310164639825E-03 0.43751666494081E-01 0.35498360445322E-01 -.14263546335968E-01 0.11293360317954E-01
  84        6PY      0.31240552350010E-03 0.71885237262343E-02 0.18594257531637E-01 0.91049526553542E-02 -.10538937854495E-01
  85        6PZ      -.46339685406921E-03 -.24640934366994E-01 -.25590703261392E-01 0.19983260428633E-02 0.32168998541573E-02
  86        7PX      0.32744842867545E-03 -.40630778708194E-01 -.42216661184950E-01 0.11385503408084E-01 -.14044753865028E-01
  87        7PY      -.35264419008305E-03 -.25092323717177E-02 -.23395897962473E-01 -.24410669623537E-02 0.27910738635792E-02
  88        7PZ      -.50098722464718E-04 0.20637151776407E-01 0.29787759757874E-01 -.19080230720174E-02 0.27494915156763E-02
  89        8XX      0.68545457471369E-04 0.94331963177930E-02 -.67787150674415E-03 -.28469872004261E-02 0.87445735772921E-03
  90        8YY      -.85739773091172E-04 -.10009949475614E-01 -.89404424136689E-02 0.33582415989331E-02 -.37898915899852E-02
  91        8ZZ      -.28933046179354E-04 -.28912028387588E-02 -.43393669298859E-02 0.19541730516405E-02 -.36425782143023E-02
  92        8XY      0.50292073611961E-04 0.50490189236480E-02 0.65480336162741E-02 0.32072128740470E-02 -.34044107295056E-02
[...]
  23         O       -.15819297684633E+00 0.22987270836838E+01
  24         O       -.13085054620960E+00 0.24059408389202E+01
  25         O       -.23695985037328E-01 0.22239222212906E+01
  26         V       0.71433539082235E-01 0.26942222634695E-01
  27         V       0.74070158325032E-01 0.16262307700612E-01
  28         V       0.74202322754885E-01 0.20697169321224E-01
  29         V       0.80277287663934E-01 0.17553119781371E-01
  30         V       0.15520791577976E+00 0.17462935718738E+00
  31         V       0.17011900876519E+00 0.10774074592672E+00
  32         V       0.17239118610099E+00 0.18725341393521E+00
  33         V       0.18202553582283E+00 0.10341596987149E+00
  34         V       0.20467203137116E+00 0.19039513201311E+00
  35         V       0.20926748464026E+00 0.20520395922275E+00
  36         V       0.23314030325365E+00 0.25181150884803E+00
  37         V       0.24854703218873E+00 0.28627982431014E+00
  38         V       0.25199868372108E+00 0.22896603143654E+00
  39         V       0.27053568420531E+00 0.31891580625683E+00
  40         V       0.27945642669696E+00 0.25855411754318E+00
  41         V       0.28520889294756E+00 0.53436509363499E+00
  42         V       0.29262288778153E+00 0.35466632754719E+00
  43         V       0.29642194299595E+00 0.28338915375939E+00
  44         V       0.32857210703023E+00 0.44184157237206E+00
  45         V       0.33952353408557E+00 0.51391620398994E+00
  46         V       0.36025862543948E+00 0.69552125039408E+00
  47         V       0.37692542519255E+00 0.56238782211991E+00
  48         V       0.40433285081477E+00 0.93650828712834E+00
  49         V       0.41534325499314E+00 0.88695929812039E+00
  50         V       0.42964785963232E+00 0.97631977781200E+00
  51         V       0.44202068001674E+00 0.11463703205543E+01
  52         V       0.44528413076040E+00 0.14389603160189E+01
  53         V       0.45384782173264E+00 0.12832591639058E+01
  54         V       0.47775517487323E+00 0.92800242399151E+00
  55         V       0.48983171313548E+00 0.96366505957545E+00
  56         V       0.49415879887608E+00 0.12122225228296E+01
  57         V       0.51301113648948E+00 0.72211676268219E+00
  58         V       0.51480584334760E+00 0.92005358996137E+00
  59         V       0.52594038363784E+00 0.15432201158167E+01
  60         V       0.53060772239887E+00 0.85217869190447E+00
  61         V       0.53872551274249E+00 0.92252367829299E+00
  62         V       0.55388968644436E+00 0.99416052993806E+00
  63         V       0.56852504612958E+00 0.13671635878362E+01
  64         V       0.58999191884047E+00 0.14085145426021E+01
  65         V       0.61855322118005E+00 0.12645460553591E+01
  66         V       0.63898314155636E+00 0.18172640937560E+01
  67         V       0.66617799496929E+00 0.23133368190953E+01
  68         V       0.68906093346616E+00 0.16888643966221E+01
  69         V       0.73701102754884E+00 0.13280465796540E+01
  70         V       0.87495822879637E+00 0.19878865963188E+01
  71         V       0.88960975997701E+00 0.20852448360772E+01
  72         V       0.90298096654469E+00 0.22709971159726E+01
  73         V       0.91448887634569E+00 0.22131633706069E+01
  74         V       0.91876104062392E+00 0.22239788148901E+01
  75         V       0.98066058997996E+00 0.23693144788592E+01
  76         V       0.99004956839213E+00 0.25007952604940E+01
  77         V       0.10588726349015E+01 0.21730928767139E+01
  78         V       0.11104874061879E+01 0.23872375830004E+01
  79         V       0.11464946022498E+01 0.22845885833563E+01
  80         V       0.11500160767656E+01 0.24151703437151E+01
  81         V       0.12198906923767E+01 0.27591213819771E+01
  82         V       0.12288940952756E+01 0.25007815697929E+01
  83         V       0.12626146651503E+01 0.25677751317719E+01
  84         V       0.12822242753647E+01 0.24402874057118E+01
  85         V       0.13094814379609E+01 0.24003624961534E+01
  86         V       0.13212213412306E+01 0.25893609779407E+01
  87         V       0.13601751286394E+01 0.25837863009384E+01
  88         V       0.13902409736352E+01 0.26405711372861E+01
  89         V       0.14311516947547E+01 0.27175094096308E+01
  90         V       0.14823470171651E+01 0.34438180963382E+01
  91         V       0.14975313112221E+01 0.26704083796210E+01
  92         V       0.15249907870320E+01 0.29081661337459E+01
  93         V       0.15494729869553E+01 0.33091711242913E+01
  94         V       0.15735150047282E+01 0.29010596432620E+01
  95         V       0.15819570166982E+01 0.33803868927809E+01
  96         V       0.16055470660853E+01 0.29992843271694E+01
  97         V       0.16327232919118E+01 0.26594118937440E+01
  98         V       0.16594746022222E+01 0.27677151863514E+01
  99         V       0.17067254261983E+01 0.26501135324716E+01
 100         V       0.17679078686787E+01 0.26749827268601E+01
 101         V       0.17817906950279E+01 0.27377532186288E+01
 102         V       0.18648164263727E+01 0.27671416522117E+01
 103         V       0.19307698561213E+01 0.27709427986719E+01
 104         V       0.19805202515451E+01 0.29699831232181E+01
 105         V       0.20002755756745E+01 0.29226508346257E+01
 106         V       0.20558706586584E+01 0.29712520251317E+01
 107         V       0.20897051935971E+01 0.28947287794896E+01
 108         V       0.21233041722014E+01 0.29284289486117E+01
 109         V       0.21405484358595E+01 0.30010303696858E+01
 110         V       0.21540257653022E+01 0.30886044909536E+01
 111         V       0.21690511469714E+01 0.30208499111004E+01
 112         V       0.21793892477604E+01 0.30506713621049E+01
 113         V       0.22295325994983E+01 0.31315683396497E+01
 114         V       0.22489771382110E+01 0.33034709287573E+01
 115         V       0.22698940343854E+01 0.32359378698658E+01
 116         V       0.23030508976729E+01 0.32237530336156E+01
 117         V       0.23141954510397E+01 0.34487864639060E+01
 118         V       0.23619217907994E+01 0.32352109782643E+01
 119         V       0.23982621671911E+01 0.35016592246639E+01
 120         V       0.24559052673724E+01 0.32375500280426E+01
 121         V       0.24817119734747E+01 0.35289132686947E+01
 122         V       0.25209362565921E+01 0.33177733461499E+01
 123         V       0.25429802922120E+01 0.35572991847844E+01
 124         V       0.25592824087579E+01 0.34989334047741E+01
 125         V       0.26057896405050E+01 0.33478522689675E+01
 126         V       0.26412123760995E+01 0.37134460521088E+01
 127         V       0.26906264072462E+01 0.36373218521870E+01
 128         V       0.27085520572681E+01 0.35682795609271E+01
 129         V       0.27454347081493E+01 0.35622151202132E+01
 130         V       0.27895806047779E+01 0.37386986281084E+01
 131         V       0.28064164023745E+01 0.37413507158242E+01
 132         V       0.28845476242607E+01 0.38654628681827E+01
 133         V       0.29392648804305E+01 0.38186068605243E+01
 134         V       0.29492824089235E+01 0.39369063326102E+01
 135         V       0.29816692939946E+01 0.38515680050513E+01
 136         V       0.30179047200061E+01 0.39169864097517E+01
 137         V       0.30818211098414E+01 0.39939019971111E+01
 138         V       0.31038474615957E+01 0.39269869855123E+01
 139         V       0.31854406731611E+01 0.43836254333063E+01
 140         V       0.32191658255422E+01 0.42550068099455E+01
 141         V       0.32895340112179E+01 0.48023752373430E+01
 142         V       0.33083641068171E+01 0.43367292745711E+01
 143         V       0.33387302890212E+01 0.47449883041300E+01
 144         V       0.33805795256006E+01 0.44911632378524E+01
 145         V       0.34793621192676E+01 0.48949045315786E+01
 146         V       0.35235579400118E+01 0.47579503559752E+01
 147         V       0.37454595806345E+01 0.52886999034775E+01
 148         V       0.37581141570478E+01 0.54261354782786E+01
 149         V       0.37760362774738E+01 0.52919824542375E+01
 150         V       0.38578499487282E+01 0.54294375664871E+01
 151         V       0.40073041049036E+01 0.57522962295019E+01
 152         V       0.44954204618776E+01 0.10449909621097E+02
 153         V       0.46298597933944E+01 0.10459425536042E+02
 154         V       0.46747648506827E+01 0.11020460485376E+02
 155         V       0.48574097322743E+01 0.10594819020685E+02
 156         V       0.49392049848765E+01 0.11796315669990E+02
 157         V       0.49560158859751E+01 0.11021795086422E+02
 Orbital energies and kinetic energies (beta):
                                 1                 2
   1         O       -.19053606809962E+02 0.29040862887443E+02
   2         O       -.19035123564294E+02 0.29040109471163E+02
   3         O       -.14376883295989E+02 0.21981358148754E+02
   4         O       -.10163607198001E+02 0.15899003070702E+02
   5         O       -.10161761199954E+02 0.15899858890095E+02
   6         O       -.10139930188386E+02 0.15898807515757E+02
   7         O       -.10213643150886E+01 0.23500268500738E+01
   8         O       -.85754185248532E+00 0.26930678066461E+01
   9         O       -.75344369822649E+00 0.16068226020797E+01
  10         O       -.67932471529529E+00 0.17445393678056E+01
  11         O       -.59125001980971E+00 0.15098937117369E+01
  12         O       -.47323225620104E+00 0.16692726838433E+01
  13         O       -.42121324061510E+00 0.10952666386967E+01
  14         O       -.41099973695103E+00 0.13537602993773E+01
  15         O       -.37491843633270E+00 0.17727588569710E+01
  16         O       -.35772441510665E+00 0.17778763494681E+01
  17         O       -.33502105316885E+00 0.14224699026374E+01
  18         O       -.30885453565861E+00 0.13191062201746E+01
  19         O       -.29114168385300E+00 0.15314883040070E+01
  20         O       -.25700680506643E+00 0.12528471317366E+01
  21         O       -.22077545461769E+00 0.15221233737313E+01
  22         O       -.15131143921367E+00 0.22710406858902E+01
  23         O       -.12485723792184E+00 0.23896507267886E+01
  24         O       -.12215628020196E+00 0.22255701264909E+01
  25         V       0.85512117519867E-01 0.16076490973555E-01
  26         V       0.88603527575404E-01 0.15756323272259E-01
  27         V       0.89321029475597E-01 0.15290185069331E-01
  28         V       0.10289521191266E+00 0.15932270109740E-01
  29         V       0.16895282899921E+00 0.17267934927264E+00
  30         V       0.18508743783615E+00 0.27042584045035E+00
  31         V       0.18745078480476E+00 0.13079616185840E+00
  32         V       0.19681862712499E+00 0.14961756250633E+00
  33         V       0.21625233849727E+00 0.28688611361787E+00
  34         V       0.22108544332141E+00 0.19205958037190E+00
  35         V       0.23551745987180E+00 0.73719288531678E+00
  36         V       0.24112804417040E+00 0.67041664687500E+00
  37         V       0.25664190038502E+00 0.32189194486336E+00
  38         V       0.25961072424049E+00 0.65938091510485E+00
  39         V       0.27724239577125E+00 0.34941061736290E+00
  40         V       0.28783840403172E+00 0.26824350102446E+00
  41         V       0.29342347019281E+00 0.50055084953680E+00
  42         V       0.30285654325900E+00 0.55581123947321E+00
  43         V       0.30481404879775E+00 0.29327160790628E+00
  44         V       0.33424929734025E+00 0.43256720442832E+00
  45         V       0.34841273298332E+00 0.51584649287265E+00
  46         V       0.36498754519521E+00 0.68494225310428E+00
  47         V       0.38019152792534E+00 0.55409555350230E+00
  48         V       0.40888406190396E+00 0.94481719312883E+00
  49         V       0.41892633948095E+00 0.80265571644679E+00
  50         V       0.43374560599856E+00 0.91685815775007E+00
  51         V       0.44572505656774E+00 0.10957832696671E+01
  52         V       0.45133091293202E+00 0.13848542561095E+01
  53         V       0.46040233329236E+00 0.12617114201821E+01
  54         V       0.48139408362974E+00 0.92657759215557E+00
  55         V       0.49401766150580E+00 0.94329559027968E+00
  56         V       0.49819297418664E+00 0.12676761889132E+01
  57         V       0.51388475905728E+00 0.68516678107612E+00
  58         V       0.51823439929097E+00 0.92080940587574E+00
  59         V       0.53116623014759E+00 0.11466366798083E+01
  60         V       0.53561760050155E+00 0.10996641705886E+01
  61         V       0.54249098699297E+00 0.10641678798715E+01
  62         V       0.55560707296207E+00 0.10273514180880E+01
  63         V       0.57488372712533E+00 0.16081145652431E+01
  64         V       0.59244861827279E+00 0.14167654353339E+01
  65         V       0.62106399105450E+00 0.12553804733267E+01
  66         V       0.64479385211144E+00 0.18265167451325E+01
  67         V       0.67325741044381E+00 0.21426537808818E+01
  68         V       0.69464995743551E+00 0.19395351242510E+01
  69         V       0.74112824802526E+00 0.13529730220613E+01
  70         V       0.87671493183104E+00 0.19676900373642E+01
  71         V       0.89117423381568E+00 0.20603613968507E+01
  72         V       0.90615524444207E+00 0.22904029311715E+01
  73         V       0.91557034261525E+00 0.21594740654487E+01
  74         V       0.92095516589646E+00 0.23246758817256E+01
  75         V       0.98236685078842E+00 0.23059294046047E+01
  76         V       0.99250369471096E+00 0.25927982546604E+01
  77         V       0.10595202534018E+01 0.21682936864305E+01
  78         V       0.11115731852342E+01 0.23787555391229E+01
  79         V       0.11483422843489E+01 0.22435323326135E+01
  80         V       0.11568695597635E+01 0.24696061439385E+01
  81         V       0.12299862291132E+01 0.24920937382558E+01
  82         V       0.12412273207175E+01 0.27755080071225E+01
  83         V       0.12672874005160E+01 0.26400970668379E+01
  84         V       0.12891301455089E+01 0.24824176192173E+01
  85         V       0.13119947505024E+01 0.23811234348176E+01
  86         V       0.13239179230995E+01 0.25939287552395E+01
  87         V       0.13619138725590E+01 0.25909336597697E+01
  88         V       0.13928271578160E+01 0.26416781689207E+01
  89         V       0.14340558689170E+01 0.27241550528195E+01
  90         V       0.14966779313672E+01 0.32839700768831E+01
  91         V       0.15013927773842E+01 0.28536080139607E+01
  92         V       0.15311595390773E+01 0.29235030846390E+01
  93         V       0.15606254919312E+01 0.33264733895384E+01
  94         V       0.15793255174473E+01 0.29688626664585E+01
  95         V       0.15870328699272E+01 0.34434699453070E+01
  96         V       0.16133401773520E+01 0.29965006625953E+01
  97         V       0.16406625906246E+01 0.26374779624520E+01
  98         V       0.16625484864337E+01 0.27879939460451E+01
  99         V       0.17148454451465E+01 0.26481405650465E+01
 100         V       0.17745218289835E+01 0.27281765078633E+01
 101         V       0.17894587242986E+01 0.26937139615134E+01
 102         V       0.18705704066828E+01 0.27726909436572E+01
 103         V       0.19337193211492E+01 0.27735043898262E+01
 104         V       0.19834193541738E+01 0.29777117361044E+01
 105         V       0.20032635061437E+01 0.29226451511356E+01
 106         V       0.20607858365533E+01 0.29695608397212E+01
 107         V       0.20980463933853E+01 0.29033455106518E+01
 108         V       0.21333213378297E+01 0.29866541113387E+01
 109         V       0.21452762970025E+01 0.29406306591018E+01
 110         V       0.21578428159754E+01 0.31026502229870E+01
 111         V       0.21747628135294E+01 0.30363421805005E+01
 112         V       0.21830235426512E+01 0.30320937701731E+01
 113         V       0.22331807875488E+01 0.31049608491766E+01
 114         V       0.22567376862467E+01 0.33356923553009E+01
 115         V       0.22732205092155E+01 0.32134697657046E+01
 116         V       0.23059994547587E+01 0.32535078779661E+01
 117         V       0.23211571801445E+01 0.34044694949663E+01
 118         V       0.23675072894828E+01 0.32298907608561E+01
 119         V       0.24046421027940E+01 0.34983580098651E+01
 120         V       0.24602370561564E+01 0.32277405176525E+01
 121         V       0.24883027097771E+01 0.35257039673567E+01
 122         V       0.25248660421899E+01 0.33162027510335E+01
 123         V       0.25470276032268E+01 0.35787060832575E+01
 124         V       0.25645225895129E+01 0.34963742939595E+01
 125         V       0.26077121531170E+01 0.33582817412061E+01
 126         V       0.26492677991569E+01 0.37056736744724E+01
 127         V       0.26932991255532E+01 0.36256366178654E+01
 128         V       0.27114343106555E+01 0.35775460104445E+01
 129         V       0.27510414107341E+01 0.35629464208657E+01
 130         V       0.27957248858770E+01 0.36907036841935E+01
 131         V       0.28115558387215E+01 0.37888694966418E+01
 132         V       0.28990711089277E+01 0.38596993626645E+01
 133         V       0.29436340120727E+01 0.38277674305237E+01
 134         V       0.29570579547547E+01 0.39306649236140E+01
 135         V       0.29859486179022E+01 0.38722141945232E+01
 136         V       0.30208729233425E+01 0.39049466963375E+01
 137         V       0.30846905251675E+01 0.39968136583431E+01
 138         V       0.31045571478470E+01 0.39292835000933E+01
 139         V       0.31896650952562E+01 0.43878385928057E+01
 140         V       0.32246940892854E+01 0.42557862739526E+01
 141         V       0.32983427367461E+01 0.47856440799582E+01
 142         V       0.33109583725921E+01 0.43190856804659E+01
 143         V       0.33448778314500E+01 0.47806737186874E+01
 144         V       0.33810325735038E+01 0.44933291067584E+01
 145         V       0.34848514621472E+01 0.49022245570877E+01
 146         V       0.35288671510485E+01 0.47577392923095E+01
 147         V       0.37461022117519E+01 0.52885702475445E+01
 148         V       0.37582089250514E+01 0.54260612327904E+01
 149         V       0.37774511146634E+01 0.52900823312972E+01
 150         V       0.38582171957941E+01 0.54280534471015E+01
 151         V       0.40080105984313E+01 0.57520179585114E+01
 152         V       0.45098046572732E+01 0.10452610549861E+02
 153         V       0.46345583770885E+01 0.10397828729573E+02
 154         V       0.46803944229954E+01 0.11097170695316E+02
 155         V       0.48601520349301E+01 0.10598045495883E+02
 156         V       0.49449092895528E+01 0.11415211505711E+02
 157         V       0.49593076402933E+01 0.11417141965467E+02
 Total kinetic energy from orbitals= 3.210956789635D+02
 Leave Link  601 at Thu Oct 13 23:29:39 2022, MaxMem= 3276800000 cpu:       1.6
 (Enter /local/g09-source/g09/l9999.exe)

 Test job not archived.
 1\1\GINC-WUX36\SP\UTD-wB97XD-Full\Gen\C3H7N1O2(1-,2)\ISSLERK\13-Oct-20
 22\0\\#p TD(full,nstates=1) wB97XD/GEN 6D Iop(6/7=3) Iop(9/40=14) scf(
 maxcyc=200,conver=8) nosym Guess(Read) Geom=AllCheck\\Comment\\-1,2\C,
 -4.957694381,0.308933602,0.872984983\C,-3.608305071,1.076411821,0.9829
 4993\N,-5.154897276,-0.731256359,1.657660077\H,-5.757245359,1.01626917
 3,0.901982593\H,-4.808602111,-0.138329698,-0.215204747\O,-6.234913203,
 -0.987642768,2.293957534\O,-4.116188347,-1.545960388,1.561971626\C,-3.
 481606169,1.712734644,2.445498285\H,-2.951933253,0.363796541,0.7521990
 66\H,-3.604674382,1.768329278,0.192706368\H,-3.527168539,0.955144931,3
 .134446558\H,-2.80305342,2.497332537,2.445154492\H,-4.637021556,2.1310
 6946,2.338245905\\Version=EM64L-G09RevA.02\HF=-323.5044017\S2=0.754418
 \S2-1=0.\S2A=0.750017\RMSD=7.273e-10\PG=C01 [X(C3H7N1O2)]\\@


 POCKETA-POCKETA
 BARON VON RICHTOFEN
 SLAUGHTERED THE ALLIES WITH
 HARDLY A CARE.
 KILLED EIGHTY-ONE WITH HIS
 BLOOD-COLORED TRIPLANE, THEN
 UN-AEROBATICALLY
 PLUNGED FROM THE AIR.
   -- TONY HOFFMAN
 Job cpu time:  0 days  0 hours 11 minutes 10.4 seconds.
 File lengths (MBytes):  RWF=     40 Int=      0 D2E=      0 Chk=      5 Scr=      1
 Normal termination of Gaussian 09 at Thu Oct 13 23:29:39 2022.
