 Entering Gaussian System, Link 0=g09
 Input=an.in2
 Output=an.log2
 Initial command:
 /local/g09-source/g09/l1.exe /scratch/1234596/TRAJ_33/Gau-31448.inp -scrdir=/scratch/1234596/TRAJ_33/
 Entering Link 1 = /local/g09-source/g09/l1.exe PID=     31450.
  
 Copyright (c) 1988,1990,1992,1993,1995,1998,2003,2009, Gaussian, Inc.
                  All Rights Reserved.
  
 This is part of the Gaussian(R) 09 program.  It is based on
 the Gaussian(R) 03 system (copyright 2003, Gaussian, Inc.),
 the Gaussian(R) 98 system (copyright 1998, Gaussian, Inc.),
 the Gaussian(R) 94 system (copyright 1995, Gaussian, Inc.),
 the Gaussian 92(TM) system (copyright 1992, Gaussian, Inc.),
 the Gaussian 90(TM) system (copyright 1990, Gaussian, Inc.),
 the Gaussian 88(TM) system (copyright 1988, Gaussian, Inc.),
 the Gaussian 86(TM) system (copyright 1986, Carnegie Mellon
 University), and the Gaussian 82(TM) system (copyright 1983,
 Carnegie Mellon University). Gaussian is a federally registered
 trademark of Gaussian, Inc.
  
 This software contains proprietary and confidential information,
 including trade secrets, belonging to Gaussian, Inc.
  
 This software is provided under written license and may be
 used, copied, transmitted, or stored only in accord with that
 written license.
  
 The following legend is applicable only to US Government
 contracts under FAR:
  
                    RESTRICTED RIGHTS LEGEND
  
 Use, reproduction and disclosure by the US Government is
 subject to restrictions as set forth in subparagraphs (a)
 and (c) of the Commercial Computer Software - Restricted
 Rights clause in FAR 52.227-19.
  
 Gaussian, Inc.
 340 Quinnipiac St., Bldg. 40, Wallingford CT 06492
  
  
 ---------------------------------------------------------------
 Warning -- This program may not be used in any manner that
 competes with the business of Gaussian, Inc. or will provide
 assistance to any competitor of Gaussian, Inc.  The licensee
 of this program is prohibited from giving any competitor of
 Gaussian, Inc. access to this program.  By using this program,
 the user acknowledges that Gaussian, Inc. is engaged in the
 business of creating and licensing software in the field of
 computational chemistry and represents and warrants to the
 licensee that it is not a competitor of Gaussian, Inc. and that
 it will not use this program in any manner prohibited above.
 ---------------------------------------------------------------
  

 Cite this work as:
 Gaussian 09, Revision A.02,
 M. J. Frisch, G. W. Trucks, H. B. Schlegel, G. E. Scuseria, 
 M. A. Robb, J. R. Cheeseman, G. Scalmani, V. Barone, B. Mennucci, 
 G. A. Petersson, H. Nakatsuji, M. Caricato, X. Li, H. P. Hratchian, 
 A. F. Izmaylov, J. Bloino, G. Zheng, J. L. Sonnenberg, M. Hada, 
 M. Ehara, K. Toyota, R. Fukuda, J. Hasegawa, M. Ishida, T. Nakajima, 
 Y. Honda, O. Kitao, H. Nakai, T. Vreven, J. A. Montgomery, Jr., 
 J. E. Peralta, F. Ogliaro, M. Bearpark, J. J. Heyd, E. Brothers, 
 K. N. Kudin, V. N. Staroverov, R. Kobayashi, J. Normand, 
 K. Raghavachari, A. Rendell, J. C. Burant, S. S. Iyengar, J. Tomasi, 
 M. Cossi, N. Rega, J. M. Millam, M. Klene, J. E. Knox, J. B. Cross, 
 V. Bakken, C. Adamo, J. Jaramillo, R. Gomperts, R. E. Stratmann, 
 O. Yazyev, A. J. Austin, R. Cammi, C. Pomelli, J. W. Ochterski, 
 R. L. Martin, K. Morokuma, V. G. Zakrzewski, G. A. Voth, 
 P. Salvador, J. J. Dannenberg, S. Dapprich, A. D. Daniels, 
 O. Farkas, J. B. Foresman, J. V. Ortiz, J. Cioslowski, 
 and D. J. Fox, Gaussian, Inc., Wallingford CT, 2009.
 
 ******************************************
 Gaussian 09:  EM64L-G09RevA.02 11-Jun-2009
                13-Oct-2022 
 ******************************************
 %Chk=an.chk
 %Nproc=10
 Will use up to   10 processors via shared memory.
 %Mem=25000Mb
 ----------------------------------------------------------------------
 #p wB97XD/GEN 6D Iop(6/7=3) Iop(9/40=14) scf(maxcyc=200,conver=8) nosy
 m Guess(Read,TCheck) GFInput Force
 ----------------------------------------------------------------------
 1/10=7,30=1,38=1/1,3;
 2/12=2,15=1,17=6,18=5,40=1/2;
 3/5=7,8=2,11=2,16=1,24=10,25=1,30=1,71=1,74=-58/1,2,3;
 4/5=102/1;
 5/5=2,6=8,7=200/2;
 6/7=3,8=2,9=2,10=2,28=1/1;
 7/29=1,30=1/1,2,3,16;
 1/10=7,30=1/3;
 99//99;
 Leave Link    1 at Thu Oct 13 23:34:25 2022, MaxMem= 3276800000 cpu:       0.7
 (Enter /local/g09-source/g09/l101.exe)
 -------
 Comment
 -------
 Symbolic Z-matrix:
 Charge = -1 Multiplicity = 2
 C                    -4.95859   0.3101    0.86944 
 C                    -3.6074    1.07656   0.98261 
 N                    -5.15462  -0.73029   1.66021 
 H                    -5.75248   1.00952   0.90699 
 H                    -4.80124  -0.13846  -0.20422 
 O                    -6.23405  -0.98864   2.29394 
 O                    -4.11781  -1.54553   1.56207 
 C                    -3.48074   1.71131   2.44517 
 H                    -2.9403    0.36779   0.74725 
 H                    -3.60803   1.77313   0.18657 
 H                    -3.53608   0.95565   3.137 
 H                    -2.81008   2.49285   2.44832 
 H                    -4.64378   2.13012   2.34108 
 
 NAtoms=     13 NQM=     13 NQMF=      0 NMic=      0 NMicF=      0 NTot=     13.
                    Isotopes and Nuclear Properties:
 (Nuclear quadrupole moments (NQMom) in fm**2, nuclear magnetic moments (NMagM)
  in nuclear magnetons)

  Atom         1           2           3           4           5           6           7           8           9          10
 IAtWgt=          12          12          14           1           1          16          16          12           1           1
 AtmWgt=  12.0000000  12.0000000  14.0030740   1.0078250   1.0078250  15.9949146  15.9949146  12.0000000   1.0078250   1.0078250
 NucSpn=           0           0           2           1           1           0           0           0           1           1
 AtZEff=   0.0000000   0.0000000   0.0000000   0.0000000   0.0000000   0.0000000   0.0000000   0.0000000   0.0000000   0.0000000
 NQMom=    0.0000000   0.0000000   2.0440000   0.0000000   0.0000000   0.0000000   0.0000000   0.0000000   0.0000000   0.0000000
 NMagM=    0.0000000   0.0000000   0.4037610   2.7928460   2.7928460   0.0000000   0.0000000   0.0000000   2.7928460   2.7928460

  Atom        11          12          13
 IAtWgt=           1           1           1
 AtmWgt=   1.0078250   1.0078250   1.0078250
 NucSpn=           1           1           1
 AtZEff=   0.0000000   0.0000000   0.0000000
 NQMom=    0.0000000   0.0000000   0.0000000
 NMagM=    2.7928460   2.7928460   2.7928460
 Leave Link  101 at Thu Oct 13 23:34:25 2022, MaxMem= 3276800000 cpu:       1.0
 (Enter /local/g09-source/g09/l103.exe)

 GradGradGradGradGradGradGradGradGradGradGradGradGradGradGradGradGradGrad
 Berny optimization.
 Initialization pass.
 Trust Radius=3.00D-01 FncErr=1.00D-07 GrdErr=1.00D-07
 Number of steps in this run=   2 maximum allowed number of steps=   2.
 GradGradGradGradGradGradGradGradGradGradGradGradGradGradGradGradGradGrad

 Leave Link  103 at Thu Oct 13 23:34:25 2022, MaxMem= 3276800000 cpu:       0.2
 (Enter /local/g09-source/g09/l202.exe)
                          Input orientation:                          
 ---------------------------------------------------------------------
 Center     Atomic      Atomic             Coordinates (Angstroms)
 Number     Number       Type             X           Y           Z
 ---------------------------------------------------------------------
      1          6           0       -4.958591    0.310099    0.869440
      2          6           0       -3.607397    1.076559    0.982612
      3          7           0       -5.154621   -0.730290    1.660212
      4          1           0       -5.752480    1.009518    0.906991
      5          1           0       -4.801235   -0.138463   -0.204218
      6          8           0       -6.234046   -0.988638    2.293942
      7          8           0       -4.117812   -1.545534    1.562068
      8          6           0       -3.480740    1.711305    2.445165
      9          1           0       -2.940299    0.367791    0.747249
     10          1           0       -3.608026    1.773130    0.186570
     11          1           0       -3.536082    0.955653    3.137001
     12          1           0       -2.810078    2.492847    2.448324
     13          1           0       -4.643782    2.130120    2.341083
 ---------------------------------------------------------------------
                    Distance matrix (angstroms):
                    1          2          3          4          5
     1  C    0.000000
     2  C    1.557561   0.000000
     3  N    1.321423   2.473408   0.000000
     4  H    1.058705   2.147462   1.987891   0.000000
     5  H    1.174185   2.076077   1.987773   1.859440   0.000000
     6  O    2.311430   3.589416   1.278090   2.479550   3.002757
     7  O    2.151747   2.733434   1.322583   3.103153   2.359382
     8  C    2.574944   1.599377   3.062584   2.831835   3.490643
     9  H    2.022810   1.001383   2.634864   2.888891   2.150504
    10  H    2.104946   1.057778   3.291002   2.387633   2.287061
    11  H    2.753563   2.158957   2.764594   3.144561   3.736502
    12  H    3.445777   2.188585   4.062834   3.637816   4.233732
    13  H    2.361635   2.007369   2.984374   2.131099   3.413184
                    6          7          8          9         10
     6  O    0.000000
     7  O    2.307427   0.000000
     8  C    3.859179   3.434053   0.000000
     9  H    3.883417   2.389828   2.231598   0.000000
    10  H    4.354809   3.628416   2.263024   1.653843   0.000000
    11  H    3.430747   3.012434   1.026017   2.532085   3.062432
    12  H    4.885502   4.336374   1.029857   2.725157   2.504047
    13  H    3.501116   3.793935   1.240526   2.923691   2.417056
                   11         12         13
    11  H    0.000000
    12  H    1.834209   0.000000
    13  H    1.799960   1.872309   0.000000
 Symmetry turned off by external request.
 Stoichiometry    C3H7NO2(1-,2)
 Framework group  C1[X(C3H7NO2)]
 Deg. of freedom    33
 Full point group                 C1      NOp   1
 Rotational constants (GHZ):      6.2219511      2.4690937      2.2892169
 Leave Link  202 at Thu Oct 13 23:34:25 2022, MaxMem= 3276800000 cpu:       0.0
 (Enter /local/g09-source/g09/l301.exe)
 General basis read from cards:  (6D, 7F)
 Centers:   4  5  9 10 11 12 13
 S 3 1.0
     Exponent=  1.8731136960D+01 Coefficients=  3.3494604000D-02
     Exponent=  2.8253943650D+00 Coefficients=  2.3472695400D-01
     Exponent=  6.4012169200D-01 Coefficients=  8.1375732600D-01
 S 1 1.0
     Exponent=  1.6127775900D-01 Coefficients=  1.0000000000D+00
 P 1 1.0
     Exponent=  1.1000000000D+00 Coefficients=  1.0000000000D+00
 ****
 Centers:   1  2  8
 S 6 1.0
     Exponent=  3.0475248800D+03 Coefficients=  1.8347370000D-03
     Exponent=  4.5736951800D+02 Coefficients=  1.4037323000D-02
     Exponent=  1.0394868500D+02 Coefficients=  6.8842622000D-02
     Exponent=  2.9210155300D+01 Coefficients=  2.3218444300D-01
     Exponent=  9.2866629600D+00 Coefficients=  4.6794134800D-01
     Exponent=  3.1639269600D+00 Coefficients=  3.6231198500D-01
 S 3 1.0
     Exponent=  7.8682723500D+00 Coefficients= -1.1933242000D-01
     Exponent=  1.8812885400D+00 Coefficients= -1.6085415200D-01
     Exponent=  5.4424925800D-01 Coefficients=  1.1434564380D+00
 S 1 1.0
     Exponent=  1.6871447800D-01 Coefficients=  1.0000000000D+00
 S 1 1.0
     Exponent=  4.3800000000D-02 Coefficients=  1.0000000000D+00
 P 3 1.0
     Exponent=  7.8682723500D+00 Coefficients=  6.8999067000D-02
     Exponent=  1.8812885400D+00 Coefficients=  3.1642396100D-01
     Exponent=  5.4424925800D-01 Coefficients=  7.4430829100D-01
 P 1 1.0
     Exponent=  1.6871447800D-01 Coefficients=  1.0000000000D+00
 P 1 1.0
     Exponent=  4.3800000000D-02 Coefficients=  1.0000000000D+00
 D 1 1.0
     Exponent=  8.0000000000D-01 Coefficients=  1.0000000000D+00
 ****
 Centers:   3
 S 6 1.0
     Exponent=  4.1735114600D+03 Coefficients=  1.8347720000D-03
     Exponent=  6.2745791100D+02 Coefficients=  1.3994627000D-02
     Exponent=  1.4290209300D+02 Coefficients=  6.8586552000D-02
     Exponent=  4.0234329300D+01 Coefficients=  2.3224087300D-01
     Exponent=  1.2820212900D+01 Coefficients=  4.6906994800D-01
     Exponent=  4.3904370100D+00 Coefficients=  3.6045519900D-01
 S 3 1.0
     Exponent=  1.1626361860D+01 Coefficients= -1.1496118200D-01
     Exponent=  2.7162798070D+00 Coefficients= -1.6911747900D-01
     Exponent=  7.7221839700D-01 Coefficients=  1.1458519470D+00
 S 1 1.0
     Exponent=  2.1203149700D-01 Coefficients=  1.0000000000D+00
 S 1 1.0
     Exponent=  6.3900000000D-02 Coefficients=  1.0000000000D+00
 S 1 1.0
     Exponent=  1.8257143000D-02 Coefficients=  1.0000000000D+00
 S 1 1.0
     Exponent=  5.2163270000D-03 Coefficients=  1.0000000000D+00
 P 3 1.0
     Exponent=  1.1626361860D+01 Coefficients=  6.7579744000D-02
     Exponent=  2.7162798070D+00 Coefficients=  3.2390729600D-01
     Exponent=  7.7221839700D-01 Coefficients=  7.4089514000D-01
 P 1 1.0
     Exponent=  2.1203149700D-01 Coefficients=  1.0000000000D+00
 P 1 1.0
     Exponent=  6.3900000000D-02 Coefficients=  1.0000000000D+00
 P 1 1.0
     Exponent=  1.8257143000D-02 Coefficients=  1.0000000000D+00
 P 1 1.0
     Exponent=  5.2163270000D-03 Coefficients=  1.0000000000D+00
 D 1 1.0
     Exponent=  8.0000000000D-01 Coefficients=  1.0000000000D+00
 ****
 Centers:   6  7
 S 6 1.0
     Exponent=  5.4846716600D+03 Coefficients=  1.8310740000D-03
     Exponent=  8.2523494600D+02 Coefficients=  1.3950172000D-02
     Exponent=  1.8804695800D+02 Coefficients=  6.8445078000D-02
     Exponent=  5.2964500000D+01 Coefficients=  2.3271433600D-01
     Exponent=  1.6897570400D+01 Coefficients=  4.7019289800D-01
     Exponent=  5.7996353400D+00 Coefficients=  3.5852085300D-01
 S 3 1.0
     Exponent=  1.5539616250D+01 Coefficients= -1.1077755000D-01
     Exponent=  3.5999335860D+00 Coefficients= -1.4802626300D-01
     Exponent=  1.0137617500D+00 Coefficients=  1.1307670150D+00
 S 1 1.0
     Exponent=  2.7000582300D-01 Coefficients=  1.0000000000D+00
 S 1 1.0
     Exponent=  8.4500000000D-02 Coefficients=  1.0000000000D+00
 P 3 1.0
     Exponent=  1.5539616250D+01 Coefficients=  7.0874268000D-02
     Exponent=  3.5999335860D+00 Coefficients=  3.3975283900D-01
     Exponent=  1.0137617500D+00 Coefficients=  7.2715857700D-01
 P 1 1.0
     Exponent=  2.7000582300D-01 Coefficients=  1.0000000000D+00
 P 1 1.0
     Exponent=  8.4500000000D-02 Coefficients=  1.0000000000D+00
 D 1 1.0
     Exponent=  8.0000000000D-01 Coefficients=  1.0000000000D+00
 ****
 Ernie: Thresh=  0.10000D-02 Tol=  0.10000D-05 Strict=F.
 AO basis set in the form of general basis input (Overlap normalization):
      1 0
 S   6 1.00       0.000000000000
      0.3047524880D+04  0.1834737002D-02
      0.4573695180D+03  0.1403732301D-01
      0.1039486850D+03  0.6884262207D-01
      0.2921015530D+02  0.2321844432D+00
      0.9286662960D+01  0.4679413485D+00
      0.3163926960D+01  0.3623119854D+00
 S   3 1.00       0.000000000000
      0.7868272350D+01 -0.1193324200D+00
      0.1881288540D+01 -0.1608541520D+00
      0.5442492580D+00  0.1143456438D+01
 S   1 1.00       0.000000000000
      0.1687144780D+00  0.1000000000D+01
 S   1 1.00       0.000000000000
      0.4380000000D-01  0.1000000000D+01
 P   3 1.00       0.000000000000
      0.7868272350D+01  0.6899906698D-01
      0.1881288540D+01  0.3164239609D+00
      0.5442492580D+00  0.7443082908D+00
 P   1 1.00       0.000000000000
      0.1687144780D+00  0.1000000000D+01
 P   1 1.00       0.000000000000
      0.4380000000D-01  0.1000000000D+01
 D   1 1.00       0.000000000000
      0.8000000000D+00  0.1000000000D+01
 ****
      2 0
 S   6 1.00       0.000000000000
      0.3047524880D+04  0.1834737002D-02
      0.4573695180D+03  0.1403732301D-01
      0.1039486850D+03  0.6884262207D-01
      0.2921015530D+02  0.2321844432D+00
      0.9286662960D+01  0.4679413485D+00
      0.3163926960D+01  0.3623119854D+00
 S   3 1.00       0.000000000000
      0.7868272350D+01 -0.1193324200D+00
      0.1881288540D+01 -0.1608541520D+00
      0.5442492580D+00  0.1143456438D+01
 S   1 1.00       0.000000000000
      0.1687144780D+00  0.1000000000D+01
 S   1 1.00       0.000000000000
      0.4380000000D-01  0.1000000000D+01
 P   3 1.00       0.000000000000
      0.7868272350D+01  0.6899906698D-01
      0.1881288540D+01  0.3164239609D+00
      0.5442492580D+00  0.7443082908D+00
 P   1 1.00       0.000000000000
      0.1687144780D+00  0.1000000000D+01
 P   1 1.00       0.000000000000
      0.4380000000D-01  0.1000000000D+01
 D   1 1.00       0.000000000000
      0.8000000000D+00  0.1000000000D+01
 ****
      3 0
 S   6 1.00       0.000000000000
      0.4173511460D+04  0.1834772000D-02
      0.6274579110D+03  0.1399462700D-01
      0.1429020930D+03  0.6858655201D-01
      0.4023432930D+02  0.2322408730D+00
      0.1282021290D+02  0.4690699480D+00
      0.4390437010D+01  0.3604551990D+00
 S   3 1.00       0.000000000000
      0.1162636186D+02 -0.1149611820D+00
      0.2716279807D+01 -0.1691174791D+00
      0.7722183970D+00  0.1145851947D+01
 S   1 1.00       0.000000000000
      0.2120314970D+00  0.1000000000D+01
 S   1 1.00       0.000000000000
      0.6390000000D-01  0.1000000000D+01
 S   1 1.00       0.000000000000
      0.1825714300D-01  0.1000000000D+01
 S   1 1.00       0.000000000000
      0.5216327000D-02  0.1000000000D+01
 P   3 1.00       0.000000000000
      0.1162636186D+02  0.6757974397D-01
      0.2716279807D+01  0.3239072959D+00
      0.7722183970D+00  0.7408951397D+00
 P   1 1.00       0.000000000000
      0.2120314970D+00  0.1000000000D+01
 P   1 1.00       0.000000000000
      0.6390000000D-01  0.1000000000D+01
 P   1 1.00       0.000000000000
      0.1825714300D-01  0.1000000000D+01
 P   1 1.00       0.000000000000
      0.5216327000D-02  0.1000000000D+01
 D   1 1.00       0.000000000000
      0.8000000000D+00  0.1000000000D+01
 ****
      4 0
 S   3 1.00       0.000000000000
      0.1873113696D+02  0.3349460400D-01
      0.2825394365D+01  0.2347269540D+00
      0.6401216920D+00  0.8137573259D+00
 S   1 1.00       0.000000000000
      0.1612777590D+00  0.1000000000D+01
 P   1 1.00       0.000000000000
      0.1100000000D+01  0.1000000000D+01
 ****
      5 0
 S   3 1.00       0.000000000000
      0.1873113696D+02  0.3349460400D-01
      0.2825394365D+01  0.2347269540D+00
      0.6401216920D+00  0.8137573259D+00
 S   1 1.00       0.000000000000
      0.1612777590D+00  0.1000000000D+01
 P   1 1.00       0.000000000000
      0.1100000000D+01  0.1000000000D+01
 ****
      6 0
 S   6 1.00       0.000000000000
      0.5484671660D+04  0.1831074000D-02
      0.8252349460D+03  0.1395017200D-01
      0.1880469580D+03  0.6844507801D-01
      0.5296450000D+02  0.2327143360D+00
      0.1689757040D+02  0.4701928980D+00
      0.5799635340D+01  0.3585208530D+00
 S   3 1.00       0.000000000000
      0.1553961625D+02 -0.1107775501D+00
      0.3599933586D+01 -0.1480262631D+00
      0.1013761750D+01  0.1130767016D+01
 S   1 1.00       0.000000000000
      0.2700058230D+00  0.1000000000D+01
 S   1 1.00       0.000000000000
      0.8450000000D-01  0.1000000000D+01
 P   3 1.00       0.000000000000
      0.1553961625D+02  0.7087426804D-01
      0.3599933586D+01  0.3397528392D+00
      0.1013761750D+01  0.7271585774D+00
 P   1 1.00       0.000000000000
      0.2700058230D+00  0.1000000000D+01
 P   1 1.00       0.000000000000
      0.8450000000D-01  0.1000000000D+01
 D   1 1.00       0.000000000000
      0.8000000000D+00  0.1000000000D+01
 ****
      7 0
 S   6 1.00       0.000000000000
      0.5484671660D+04  0.1831074000D-02
      0.8252349460D+03  0.1395017200D-01
      0.1880469580D+03  0.6844507801D-01
      0.5296450000D+02  0.2327143360D+00
      0.1689757040D+02  0.4701928980D+00
      0.5799635340D+01  0.3585208530D+00
 S   3 1.00       0.000000000000
      0.1553961625D+02 -0.1107775501D+00
      0.3599933586D+01 -0.1480262631D+00
      0.1013761750D+01  0.1130767016D+01
 S   1 1.00       0.000000000000
      0.2700058230D+00  0.1000000000D+01
 S   1 1.00       0.000000000000
      0.8450000000D-01  0.1000000000D+01
 P   3 1.00       0.000000000000
      0.1553961625D+02  0.7087426804D-01
      0.3599933586D+01  0.3397528392D+00
      0.1013761750D+01  0.7271585774D+00
 P   1 1.00       0.000000000000
      0.2700058230D+00  0.1000000000D+01
 P   1 1.00       0.000000000000
      0.8450000000D-01  0.1000000000D+01
 D   1 1.00       0.000000000000
      0.8000000000D+00  0.1000000000D+01
 ****
      8 0
 S   6 1.00       0.000000000000
      0.3047524880D+04  0.1834737002D-02
      0.4573695180D+03  0.1403732301D-01
      0.1039486850D+03  0.6884262207D-01
      0.2921015530D+02  0.2321844432D+00
      0.9286662960D+01  0.4679413485D+00
      0.3163926960D+01  0.3623119854D+00
 S   3 1.00       0.000000000000
      0.7868272350D+01 -0.1193324200D+00
      0.1881288540D+01 -0.1608541520D+00
      0.5442492580D+00  0.1143456438D+01
 S   1 1.00       0.000000000000
      0.1687144780D+00  0.1000000000D+01
 S   1 1.00       0.000000000000
      0.4380000000D-01  0.1000000000D+01
 P   3 1.00       0.000000000000
      0.7868272350D+01  0.6899906698D-01
      0.1881288540D+01  0.3164239609D+00
      0.5442492580D+00  0.7443082908D+00
 P   1 1.00       0.000000000000
      0.1687144780D+00  0.1000000000D+01
 P   1 1.00       0.000000000000
      0.4380000000D-01  0.1000000000D+01
 D   1 1.00       0.000000000000
      0.8000000000D+00  0.1000000000D+01
 ****
      9 0
 S   3 1.00       0.000000000000
      0.1873113696D+02  0.3349460400D-01
      0.2825394365D+01  0.2347269540D+00
      0.6401216920D+00  0.8137573259D+00
 S   1 1.00       0.000000000000
      0.1612777590D+00  0.1000000000D+01
 P   1 1.00       0.000000000000
      0.1100000000D+01  0.1000000000D+01
 ****
     10 0
 S   3 1.00       0.000000000000
      0.1873113696D+02  0.3349460400D-01
      0.2825394365D+01  0.2347269540D+00
      0.6401216920D+00  0.8137573259D+00
 S   1 1.00       0.000000000000
      0.1612777590D+00  0.1000000000D+01
 P   1 1.00       0.000000000000
      0.1100000000D+01  0.1000000000D+01
 ****
     11 0
 S   3 1.00       0.000000000000
      0.1873113696D+02  0.3349460400D-01
      0.2825394365D+01  0.2347269540D+00
      0.6401216920D+00  0.8137573259D+00
 S   1 1.00       0.000000000000
      0.1612777590D+00  0.1000000000D+01
 P   1 1.00       0.000000000000
      0.1100000000D+01  0.1000000000D+01
 ****
     12 0
 S   3 1.00       0.000000000000
      0.1873113696D+02  0.3349460400D-01
      0.2825394365D+01  0.2347269540D+00
      0.6401216920D+00  0.8137573259D+00
 S   1 1.00       0.000000000000
      0.1612777590D+00  0.1000000000D+01
 P   1 1.00       0.000000000000
      0.1100000000D+01  0.1000000000D+01
 ****
     13 0
 S   3 1.00       0.000000000000
      0.1873113696D+02  0.3349460400D-01
      0.2825394365D+01  0.2347269540D+00
      0.6401216920D+00  0.8137573259D+00
 S   1 1.00       0.000000000000
      0.1612777590D+00  0.1000000000D+01
 P   1 1.00       0.000000000000
      0.1100000000D+01  0.1000000000D+01
 ****

 Integral buffers will be    131072 words long.
 Raffenetti 2 integral format.
 Two-electron integral symmetry is turned off.
   157 basis functions,   249 primitive gaussians,   157 cartesian basis functions
    25 alpha electrons       24 beta electrons
       nuclear repulsion energy       249.8476435090 Hartrees.
 IExCor= 4639 DFT=T Ex+Corr=wB97XD ExCW=0 ScaHFX=  1.000000
 ScaDFX=  1.000000  1.000000  1.000000  1.000000 ScalE2=  1.000000  1.000000
 IRadAn=      0 IRanWt=     -1 IRanGd=            0 ICorTp=0
  HFx wShort=  0.000000 wLong=  0.200000 cFull=  0.222036 cShort=  0.000000 cLong=  0.777964
  DFx wShort=  0.000000 wLong=  0.200000 cFull=  0.000000 cShort=  0.000000 cLong=  1.000000
 NAtoms=   13 NActive=   13 NUniq=   13 SFac= 7.50D-01 NAtFMM=   80 NAOKFM=F Big=F
 R6Disp: Dispersion energy =        -0.0059173684 Hartrees.
 Nuclear repulsion after empirical dispersion term =      249.8417261407 Hartrees.
 Leave Link  301 at Thu Oct 13 23:34:25 2022, MaxMem= 3276800000 cpu:       0.6
 (Enter /local/g09-source/g09/l302.exe)
 NPDir=0 NMtPBC=     1 NCelOv=     1 NCel=       1 NClECP=     1 NCelD=      1
         NCelK=      1 NCelE2=     1 NClLst=     1 CellRange=     0.0.
 One-electron integrals computed using PRISM.
 NBasis=   157 RedAO= T  NBF=   157
 NBsUse=   157 1.00D-06 NBFU=   157
 Precomputing XC quadrature grid using
 IXCGrd= 2 IRadAn=           0 IRanWt=          -1 IRanGd=           0 AccXCQ= 1.00D-10.
 NRdTot=     881 NPtTot=      113336 NUsed=      119685 NTot=      119717
 NSgBfM=   157   157   157   157   157 NAtAll=    13    13.
 Leave Link  302 at Thu Oct 13 23:34:25 2022, MaxMem= 3276800000 cpu:       2.4
 (Enter /local/g09-source/g09/l303.exe)
 DipDrv:  MaxL=1.
 Leave Link  303 at Thu Oct 13 23:34:25 2022, MaxMem= 3276800000 cpu:       0.5
 (Enter /local/g09-source/g09/l401.exe)
 Initial guess read from the checkpoint file:  an.chk
 B after Tr=     0.000646    0.001702    0.002172
         Rot=    1.000000    0.000003    0.000111   -0.000103 Ang=   0.02 deg.
 Guess basis will be translated and rotated to current coordinates.
 Initial guess <Sx>= 0.0000 <Sy>= 0.0000 <Sz>= 0.5000 <S**2>= 0.7544 S= 0.5022
 Leave Link  401 at Thu Oct 13 23:34:26 2022, MaxMem= 3276800000 cpu:       2.2
 (Enter /local/g09-source/g09/l502.exe)
 UHF open shell SCF:
 Requested convergence on RMS density matrix=1.00D-08 within 200 cycles.
 Requested convergence on MAX density matrix=1.00D-06.
 Requested convergence on             energy=1.00D-06.
 No special actions if energy rises.
 Using DIIS extrapolation, IDIIS=  1040.
 Two-electron integral symmetry not used.
       119555 words used for storage of precomputed grid.
 IEnd=      238162 IEndB=      238162 NGot=  3276800000 MDV=  3276627045
 LenX=  3276627045 LenY=  3276601955
 Fock matrices will be formed incrementally for  20 cycles.

 Cycle   1  Pass 1  IDiag  1:
 FoFJK:  IHMeth= 1 ICntrl=     0 DoSepK=T KAlg= 1 I1Cent= 0 FoldK=F
 FoFCou: FMM=F IPFlag=           0 FMFlag=      100000 FMFlg1=           0
         NFxFlg=           0 DoJE=T BraDBF=F KetDBF=F FulRan=T
         Omega=  0.000000  0.000000  1.000000  0.000000  0.000000 ICntrl=     500 IOpCl=  0
         NMat0=    1 NMatS0=    1 NMatT0=    0 NMatD0=    1 NMtDS0=    0 NMtDT0=    0
         I1Cent=           0 NGrid=           0.
 Symmetry not used in FoFCou.
 E= -323.505041182084    
 DIIS: error= 3.59D-04 at cycle   1 NSaved=   1.
 NSaved= 1 IEnMin= 1 EnMin= -323.505041182084     IErMin= 1 ErrMin= 3.59D-04
 ErrMax= 3.59D-04 EMaxC= 1.00D-01 BMatC= 2.94D-04 BMatP= 2.94D-04
 IDIUse=3 WtCom= 9.96D-01 WtEn= 3.59D-03
 Coeff-Com:  0.100D+01
 Coeff-En:   0.100D+01
 Coeff:      0.100D+01
 Gap=     0.094 Goal=   None    Shift=    0.000
 Gap=     0.207 Goal=   None    Shift=    0.000
 RMSDP=1.55D-04 MaxDP=4.20D-03              OVMax= 3.00D-03

 Cycle   2  Pass 1  IDiag  1:
 RMSU=  1.19D-04    CP:  9.99D-01
 FoFJK:  IHMeth= 1 ICntrl=     0 DoSepK=T KAlg= 1 I1Cent= 0 FoldK=F
 E= -323.505151949087     Delta-E=       -0.000110767003 Rises=F Damp=F
 DIIS: error= 1.82D-04 at cycle   2 NSaved=   2.
 NSaved= 2 IEnMin= 2 EnMin= -323.505151949087     IErMin= 2 ErrMin= 1.82D-04
 ErrMax= 1.82D-04 EMaxC= 1.00D-01 BMatC= 3.44D-05 BMatP= 2.94D-04
 IDIUse=3 WtCom= 9.98D-01 WtEn= 1.82D-03
 Coeff-Com:  0.679D-01 0.932D+00
 Coeff-En:   0.000D+00 0.100D+01
 Coeff:      0.678D-01 0.932D+00
 Gap=     0.094 Goal=   None    Shift=    0.000
 Gap=     0.207 Goal=   None    Shift=    0.000
 RMSDP=5.90D-05 MaxDP=2.71D-03 DE=-1.11D-04 OVMax= 1.51D-03

 Cycle   3  Pass 1  IDiag  1:
 RMSU=  4.10D-05    CP:  9.99D-01  1.19D+00
 FoFJK:  IHMeth= 1 ICntrl=     0 DoSepK=T KAlg= 1 I1Cent= 0 FoldK=F
 E= -323.505160546761     Delta-E=       -0.000008597674 Rises=F Damp=F
 DIIS: error= 8.85D-05 at cycle   3 NSaved=   3.
 NSaved= 3 IEnMin= 3 EnMin= -323.505160546761     IErMin= 3 ErrMin= 8.85D-05
 ErrMax= 8.85D-05 EMaxC= 1.00D-01 BMatC= 1.35D-05 BMatP= 3.44D-05
 IDIUse=1 WtCom= 1.00D+00 WtEn= 0.00D+00
 Coeff-Com: -0.759D-01 0.378D+00 0.698D+00
 Coeff:     -0.759D-01 0.378D+00 0.698D+00
 Gap=     0.094 Goal=   None    Shift=    0.000
 Gap=     0.207 Goal=   None    Shift=    0.000
 RMSDP=2.95D-05 MaxDP=1.22D-03 DE=-8.60D-06 OVMax= 6.77D-04

 Cycle   4  Pass 1  IDiag  1:
 RMSU=  1.75D-05    CP:  9.99D-01  1.30D+00  1.19D+00
 FoFJK:  IHMeth= 1 ICntrl=     0 DoSepK=T KAlg= 1 I1Cent= 0 FoldK=F
 E= -323.505164107975     Delta-E=       -0.000003561214 Rises=F Damp=F
 DIIS: error= 3.22D-05 at cycle   4 NSaved=   4.
 NSaved= 4 IEnMin= 4 EnMin= -323.505164107975     IErMin= 4 ErrMin= 3.22D-05
 ErrMax= 3.22D-05 EMaxC= 1.00D-01 BMatC= 7.64D-07 BMatP= 1.35D-05
 IDIUse=1 WtCom= 1.00D+00 WtEn= 0.00D+00
 Coeff-Com: -0.262D-01 0.735D-01 0.215D+00 0.738D+00
 Coeff:     -0.262D-01 0.735D-01 0.215D+00 0.738D+00
 Gap=     0.094 Goal=   None    Shift=    0.000
 Gap=     0.207 Goal=   None    Shift=    0.000
 RMSDP=2.65D-05 MaxDP=2.40D-03 DE=-3.56D-06 OVMax= 4.32D-04

 Cycle   5  Pass 1  IDiag  1:
 RMSU=  1.39D-05    CP:  9.98D-01  1.36D+00  1.45D+00  1.41D+00
 FoFJK:  IHMeth= 1 ICntrl=     0 DoSepK=T KAlg= 1 I1Cent= 0 FoldK=F
 E= -323.505164323664     Delta-E=       -0.000000215689 Rises=F Damp=F
 DIIS: error= 3.04D-05 at cycle   5 NSaved=   5.
 NSaved= 5 IEnMin= 5 EnMin= -323.505164323664     IErMin= 5 ErrMin= 3.04D-05
 ErrMax= 3.04D-05 EMaxC= 1.00D-01 BMatC= 4.75D-07 BMatP= 7.64D-07
 IDIUse=1 WtCom= 1.00D+00 WtEn= 0.00D+00
 Coeff-Com:  0.298D-02-0.532D-01-0.472D-01 0.473D+00 0.625D+00
 Coeff:      0.298D-02-0.532D-01-0.472D-01 0.473D+00 0.625D+00
 Gap=     0.094 Goal=   None    Shift=    0.000
 Gap=     0.208 Goal=   None    Shift=    0.000
 RMSDP=1.72D-05 MaxDP=1.37D-03 DE=-2.16D-07 OVMax= 3.35D-04

 Cycle   6  Pass 1  IDiag  1:
 RMSU=  3.54D-06    CP:  9.98D-01  1.41D+00  1.63D+00  1.79D+00  1.44D+00
 FoFJK:  IHMeth= 1 ICntrl=     0 DoSepK=T KAlg= 1 I1Cent= 0 FoldK=F
 E= -323.505164470840     Delta-E=       -0.000000147175 Rises=F Damp=F
 DIIS: error= 3.78D-06 at cycle   6 NSaved=   6.
 NSaved= 6 IEnMin= 6 EnMin= -323.505164470840     IErMin= 6 ErrMin= 3.78D-06
 ErrMax= 3.78D-06 EMaxC= 1.00D-01 BMatC= 1.83D-08 BMatP= 4.75D-07
 IDIUse=1 WtCom= 1.00D+00 WtEn= 0.00D+00
 Coeff-Com:  0.429D-02-0.190D-01-0.385D-01-0.462D-01 0.705D-01 0.103D+01
 Coeff:      0.429D-02-0.190D-01-0.385D-01-0.462D-01 0.705D-01 0.103D+01
 Gap=     0.094 Goal=   None    Shift=    0.000
 Gap=     0.208 Goal=   None    Shift=    0.000
 RMSDP=1.98D-05 MaxDP=1.90D-03 DE=-1.47D-07 OVMax= 2.86D-04

 Cycle   7  Pass 1  IDiag  1:
 RMSU=  1.83D-06    CP:  9.98D-01  1.45D+00  1.79D+00  2.11D+00  2.20D+00
                    CP:  1.77D+00
 FoFJK:  IHMeth= 1 ICntrl=     0 DoSepK=T KAlg= 1 I1Cent= 0 FoldK=F
 E= -323.505164496809     Delta-E=       -0.000000025969 Rises=F Damp=F
 DIIS: error= 2.85D-06 at cycle   7 NSaved=   7.
 NSaved= 7 IEnMin= 7 EnMin= -323.505164496809     IErMin= 7 ErrMin= 2.85D-06
 ErrMax= 2.85D-06 EMaxC= 1.00D-01 BMatC= 6.20D-09 BMatP= 1.83D-08
 IDIUse=1 WtCom= 1.00D+00 WtEn= 0.00D+00
 Coeff-Com:  0.141D-02-0.454D-03-0.940D-02-0.833D-01-0.563D-01 0.430D+00
 Coeff-Com:  0.718D+00
 Coeff:      0.141D-02-0.454D-03-0.940D-02-0.833D-01-0.563D-01 0.430D+00
 Coeff:      0.718D+00
 Gap=     0.094 Goal=   None    Shift=    0.000
 Gap=     0.208 Goal=   None    Shift=    0.000
 RMSDP=8.39D-06 MaxDP=8.11D-04 DE=-2.60D-08 OVMax= 1.29D-04

 Cycle   8  Pass 1  IDiag  1:
 RMSU=  6.01D-07    CP:  9.98D-01  1.47D+00  1.86D+00  2.24D+00  2.53D+00
                    CP:  2.15D+00  1.42D+00
 FoFJK:  IHMeth= 1 ICntrl=     0 DoSepK=T KAlg= 1 I1Cent= 0 FoldK=F
 E= -323.505164502552     Delta-E=       -0.000000005743 Rises=F Damp=F
 DIIS: error= 1.26D-06 at cycle   8 NSaved=   8.
 NSaved= 8 IEnMin= 8 EnMin= -323.505164502552     IErMin= 8 ErrMin= 1.26D-06
 ErrMax= 1.26D-06 EMaxC= 1.00D-01 BMatC= 1.43D-09 BMatP= 6.20D-09
 IDIUse=1 WtCom= 1.00D+00 WtEn= 0.00D+00
 Coeff-Com: -0.893D-03 0.645D-02 0.884D-02-0.181D-01-0.451D-01-0.184D+00
 Coeff-Com:  0.272D+00 0.961D+00
 Coeff:     -0.893D-03 0.645D-02 0.884D-02-0.181D-01-0.451D-01-0.184D+00
 Coeff:      0.272D+00 0.961D+00
 Gap=     0.094 Goal=   None    Shift=    0.000
 Gap=     0.208 Goal=   None    Shift=    0.000
 RMSDP=7.81D-06 MaxDP=7.77D-04 DE=-5.74D-09 OVMax= 1.25D-04

 Cycle   9  Pass 1  IDiag  1:
 RMSU=  4.22D-07    CP:  9.97D-01  1.48D+00  1.91D+00  2.34D+00  2.85D+00
                    CP:  2.52D+00  2.03D+00  1.85D+00
 FoFJK:  IHMeth= 1 ICntrl=     0 DoSepK=T KAlg= 1 I1Cent= 0 FoldK=F
 E= -323.505164505146     Delta-E=       -0.000000002594 Rises=F Damp=F
 DIIS: error= 4.53D-07 at cycle   9 NSaved=   9.
 NSaved= 9 IEnMin= 9 EnMin= -323.505164505146     IErMin= 9 ErrMin= 4.53D-07
 ErrMax= 4.53D-07 EMaxC= 1.00D-01 BMatC= 2.62D-10 BMatP= 1.43D-09
 IDIUse=1 WtCom= 1.00D+00 WtEn= 0.00D+00
 Coeff-Com: -0.534D-03 0.240D-02 0.442D-02 0.574D-02-0.631D-02-0.133D+00
 Coeff-Com:  0.351D-02 0.368D+00 0.756D+00
 Coeff:     -0.534D-03 0.240D-02 0.442D-02 0.574D-02-0.631D-02-0.133D+00
 Coeff:      0.351D-02 0.368D+00 0.756D+00
 Gap=     0.094 Goal=   None    Shift=    0.000
 Gap=     0.208 Goal=   None    Shift=    0.000
 RMSDP=2.48D-06 MaxDP=2.45D-04 DE=-2.59D-09 OVMax= 4.80D-05

 Cycle  10  Pass 1  IDiag  1:
 RMSU=  1.31D-07    CP:  9.97D-01  1.49D+00  1.93D+00  2.37D+00  2.96D+00
                    CP:  2.64D+00  2.30D+00  2.34D+00  1.57D+00
 FoFJK:  IHMeth= 1 ICntrl=     0 DoSepK=T KAlg= 1 I1Cent= 0 FoldK=F
 E= -323.505164505643     Delta-E=       -0.000000000497 Rises=F Damp=F
 DIIS: error= 3.76D-07 at cycle  10 NSaved=  10.
 NSaved=10 IEnMin=10 EnMin= -323.505164505643     IErMin=10 ErrMin= 3.76D-07
 ErrMax= 3.76D-07 EMaxC= 1.00D-01 BMatC= 4.70D-11 BMatP= 2.62D-10
 IDIUse=1 WtCom= 1.00D+00 WtEn= 0.00D+00
 Coeff-Com:  0.277D-04-0.770D-03-0.632D-03 0.680D-02 0.103D-01-0.499D-02
 Coeff-Com: -0.637D-01-0.118D+00 0.166D+00 0.101D+01
 Coeff:      0.277D-04-0.770D-03-0.632D-03 0.680D-02 0.103D-01-0.499D-02
 Coeff:     -0.637D-01-0.118D+00 0.166D+00 0.101D+01
 Gap=     0.094 Goal=   None    Shift=    0.000
 Gap=     0.208 Goal=   None    Shift=    0.000
 RMSDP=1.44D-06 MaxDP=1.31D-04 DE=-4.97D-10 OVMax= 4.28D-05

 Cycle  11  Pass 1  IDiag  1:
 RMSU=  1.78D-07    CP:  9.97D-01  1.49D+00  1.94D+00  2.38D+00  3.00D+00
                    CP:  2.71D+00  2.49D+00  2.84D+00  2.22D+00  2.16D+00
 FoFJK:  IHMeth= 1 ICntrl=     0 DoSepK=T KAlg= 1 I1Cent= 0 FoldK=F
 E= -323.505164505902     Delta-E=       -0.000000000259 Rises=F Damp=F
 DIIS: error= 1.93D-07 at cycle  11 NSaved=  11.
 NSaved=11 IEnMin=11 EnMin= -323.505164505902     IErMin=11 ErrMin= 1.93D-07
 ErrMax= 1.93D-07 EMaxC= 1.00D-01 BMatC= 1.88D-11 BMatP= 4.70D-11
 IDIUse=1 WtCom= 1.00D+00 WtEn= 0.00D+00
 Coeff-Com:  0.963D-04-0.345D-03-0.615D-03-0.260D-02-0.463D-03 0.252D-01
 Coeff-Com:  0.242D-01-0.500D-01-0.286D+00 0.153D-01 0.127D+01
 Coeff:      0.963D-04-0.345D-03-0.615D-03-0.260D-02-0.463D-03 0.252D-01
 Coeff:      0.242D-01-0.500D-01-0.286D+00 0.153D-01 0.127D+01
 Gap=     0.094 Goal=   None    Shift=    0.000
 Gap=     0.208 Goal=   None    Shift=    0.000
 RMSDP=5.87D-07 MaxDP=3.70D-05 DE=-2.59D-10 OVMax= 3.00D-05

 Cycle  12  Pass 1  IDiag  1:
 RMSU=  1.26D-07    CP:  9.97D-01  1.49D+00  1.94D+00  2.39D+00  3.00D+00
                    CP:  2.74D+00  2.58D+00  3.00D+00  2.76D+00  3.00D+00
                    CP:  2.22D+00
 FoFJK:  IHMeth= 1 ICntrl=     0 DoSepK=T KAlg= 1 I1Cent= 0 FoldK=F
 E= -323.505164506016     Delta-E=       -0.000000000114 Rises=F Damp=F
 DIIS: error= 1.24D-07 at cycle  12 NSaved=  12.
 NSaved=12 IEnMin=12 EnMin= -323.505164506016     IErMin=12 ErrMin= 1.24D-07
 ErrMax= 1.24D-07 EMaxC= 1.00D-01 BMatC= 5.04D-12 BMatP= 1.88D-11
 IDIUse=1 WtCom= 1.00D+00 WtEn= 0.00D+00
 Coeff-Com: -0.173D-04 0.249D-03 0.306D-03-0.205D-02-0.301D-02-0.123D-02
 Coeff-Com:  0.276D-01 0.364D-01-0.103D+00-0.191D+00-0.136D+00 0.137D+01
 Coeff:     -0.173D-04 0.249D-03 0.306D-03-0.205D-02-0.301D-02-0.123D-02
 Coeff:      0.276D-01 0.364D-01-0.103D+00-0.191D+00-0.136D+00 0.137D+01
 Gap=     0.094 Goal=   None    Shift=    0.000
 Gap=     0.208 Goal=   None    Shift=    0.000
 RMSDP=3.37D-07 MaxDP=2.55D-05 DE=-1.14D-10 OVMax= 2.13D-05

 Cycle  13  Pass 1  IDiag  1:
 RMSU=  1.60D-07    CP:  9.97D-01  1.49D+00  1.94D+00  2.39D+00  3.00D+00
                    CP:  2.75D+00  2.61D+00  3.00D+00  3.00D+00  3.00D+00
                    CP:  2.52D+00  2.35D+00
 FoFJK:  IHMeth= 1 ICntrl=     0 DoSepK=T KAlg= 1 I1Cent= 0 FoldK=F
 E= -323.505164506056     Delta-E=       -0.000000000040 Rises=F Damp=F
 DIIS: error= 5.86D-08 at cycle  13 NSaved=  13.
 NSaved=13 IEnMin=13 EnMin= -323.505164506056     IErMin=13 ErrMin= 5.86D-08
 ErrMax= 5.86D-08 EMaxC= 1.00D-01 BMatC= 1.82D-12 BMatP= 5.04D-12
 IDIUse=1 WtCom= 1.00D+00 WtEn= 0.00D+00
 Coeff-Com: -0.356D-04 0.172D-03 0.294D-03 0.354D-03-0.559D-03-0.941D-02
 Coeff-Com:  0.202D-02 0.261D-01 0.470D-01-0.618D-02-0.541D+00 0.444D+00
 Coeff-Com:  0.104D+01
 Coeff:     -0.356D-04 0.172D-03 0.294D-03 0.354D-03-0.559D-03-0.941D-02
 Coeff:      0.202D-02 0.261D-01 0.470D-01-0.618D-02-0.541D+00 0.444D+00
 Coeff:      0.104D+01
 Gap=     0.094 Goal=   None    Shift=    0.000
 Gap=     0.208 Goal=   None    Shift=    0.000
 RMSDP=1.80D-07 MaxDP=1.27D-05 DE=-3.97D-11 OVMax= 1.07D-05

 Cycle  14  Pass 1  IDiag  1:
 RMSU=  3.64D-08    CP:  9.97D-01  1.49D+00  1.94D+00  2.39D+00  3.00D+00
                    CP:  2.75D+00  2.62D+00  3.00D+00  3.00D+00  3.00D+00
                    CP:  2.52D+00  2.93D+00  1.78D+00
 FoFJK:  IHMeth= 1 ICntrl=     0 DoSepK=T KAlg= 1 I1Cent= 0 FoldK=F
 E= -323.505164506070     Delta-E=       -0.000000000014 Rises=F Damp=F
 DIIS: error= 2.11D-08 at cycle  14 NSaved=  14.
 NSaved=14 IEnMin=14 EnMin= -323.505164506070     IErMin=14 ErrMin= 2.11D-08
 ErrMax= 2.11D-08 EMaxC= 1.00D-01 BMatC= 2.05D-13 BMatP= 1.82D-12
 IDIUse=1 WtCom= 1.00D+00 WtEn= 0.00D+00
 Coeff-Com: -0.129D-05-0.409D-04-0.295D-04 0.566D-03 0.599D-03-0.992D-03
 Coeff-Com: -0.493D-02-0.640D-02 0.207D-01 0.651D-01-0.303D-01-0.218D+00
 Coeff-Com: -0.246D-01 0.120D+01
 Coeff:     -0.129D-05-0.409D-04-0.295D-04 0.566D-03 0.599D-03-0.992D-03
 Coeff:     -0.493D-02-0.640D-02 0.207D-01 0.651D-01-0.303D-01-0.218D+00
 Coeff:     -0.246D-01 0.120D+01
 Gap=     0.094 Goal=   None    Shift=    0.000
 Gap=     0.208 Goal=   None    Shift=    0.000
 RMSDP=8.80D-08 MaxDP=9.94D-06 DE=-1.40D-11 OVMax= 2.75D-06

 Cycle  15  Pass 1  IDiag  1:
 RMSU=  3.10D-08    CP:  9.97D-01  1.49D+00  1.94D+00  2.39D+00  3.00D+00
                    CP:  2.75D+00  2.61D+00  3.00D+00  3.00D+00  3.00D+00
                    CP:  2.38D+00  2.97D+00  2.09D+00  1.36D+00
 FoFJK:  IHMeth= 1 ICntrl=     0 DoSepK=T KAlg= 1 I1Cent= 0 FoldK=F
 E= -323.505164506071     Delta-E=       -0.000000000001 Rises=F Damp=F
 DIIS: error= 8.38D-09 at cycle  15 NSaved=  15.
 NSaved=15 IEnMin=15 EnMin= -323.505164506071     IErMin=15 ErrMin= 8.38D-09
 ErrMax= 8.38D-09 EMaxC= 1.00D-01 BMatC= 4.06D-14 BMatP= 2.05D-13
 IDIUse=1 WtCom= 1.00D+00 WtEn= 0.00D+00
 Coeff-Com:  0.651D-05-0.299D-04-0.487D-04-0.571D-04 0.473D-04 0.170D-02
 Coeff-Com:  0.260D-03-0.478D-02-0.119D-01 0.603D-02 0.871D-01-0.514D-01
 Coeff-Com: -0.221D+00-0.258D-01 0.122D+01
 Coeff:      0.651D-05-0.299D-04-0.487D-04-0.571D-04 0.473D-04 0.170D-02
 Coeff:      0.260D-03-0.478D-02-0.119D-01 0.603D-02 0.871D-01-0.514D-01
 Coeff:     -0.221D+00-0.258D-01 0.122D+01
 Gap=     0.094 Goal=   None    Shift=    0.000
 Gap=     0.208 Goal=   None    Shift=    0.000
 RMSDP=3.72D-08 MaxDP=4.08D-06 DE=-1.14D-12 OVMax= 9.61D-07

 Cycle  16  Pass 1  IDiag  1:
 RMSU=  5.15D-09    CP:  9.97D-01  1.49D+00  1.94D+00  2.39D+00  3.00D+00
                    CP:  2.75D+00  2.61D+00  3.00D+00  3.00D+00  3.00D+00
                    CP:  2.30D+00  2.95D+00  2.19D+00  1.53D+00  1.58D+00
 FoFJK:  IHMeth= 1 ICntrl=     0 DoSepK=T KAlg= 1 I1Cent= 0 FoldK=F
 E= -323.505164506072     Delta-E=       -0.000000000001 Rises=F Damp=F
 DIIS: error= 2.83D-09 at cycle  16 NSaved=  16.
 NSaved=16 IEnMin=16 EnMin= -323.505164506072     IErMin=16 ErrMin= 2.83D-09
 ErrMax= 2.83D-09 EMaxC= 1.00D-01 BMatC= 6.34D-15 BMatP= 4.06D-14
 IDIUse=1 WtCom= 1.00D+00 WtEn= 0.00D+00
 Large coefficients: NSaved= 16 BigCof=    0.00 CofMax=   10.00 Det=-9.61D-15
 Inversion failed.  Reducing to 15 matrices.
 Coeff-Com:  0.629D-05 0.454D-05-0.773D-04-0.118D-03 0.194D-03 0.867D-03
 Coeff-Com:  0.911D-03-0.445D-02-0.743D-02 0.537D-02 0.394D-01-0.159D-01
 Coeff-Com: -0.190D+00 0.956D-01 0.108D+01
 Coeff:      0.629D-05 0.454D-05-0.773D-04-0.118D-03 0.194D-03 0.867D-03
 Coeff:      0.911D-03-0.445D-02-0.743D-02 0.537D-02 0.394D-01-0.159D-01
 Coeff:     -0.190D+00 0.956D-01 0.108D+01
 Gap=     0.094 Goal=   None    Shift=    0.000
 Gap=     0.208 Goal=   None    Shift=    0.000
 RMSDP=1.15D-08 MaxDP=1.14D-06 DE=-1.36D-12 OVMax= 3.27D-07

 Cycle  17  Pass 1  IDiag  1:
 RMSU=  1.23D-09    CP:  9.97D-01  1.49D+00  1.94D+00  2.39D+00  3.00D+00
                    CP:  2.75D+00  2.61D+00  3.00D+00  3.00D+00  3.00D+00
                    CP:  2.28D+00  2.93D+00  2.20D+00  1.56D+00  1.77D+00
                    CP:  1.66D+00
 FoFJK:  IHMeth= 1 ICntrl=     0 DoSepK=T KAlg= 1 I1Cent= 0 FoldK=F
 E= -323.505164506071     Delta-E=        0.000000000001 Rises=F Damp=F
 DIIS: error= 1.38D-09 at cycle  17 NSaved=  16.
 NSaved=16 IEnMin=15 EnMin= -323.505164506072     IErMin=16 ErrMin= 1.38D-09
 ErrMax= 1.38D-09 EMaxC= 1.00D-01 BMatC= 1.57D-15 BMatP= 6.34D-15
 IDIUse=1 WtCom= 1.00D+00 WtEn= 0.00D+00
 Large coefficients: NSaved= 16 BigCof=    0.00 CofMax=   10.00 Det=-3.42D-15
 Inversion failed.  Reducing to 15 matrices.
 Coeff-Com: -0.772D-06 0.224D-05-0.110D-04-0.434D-04 0.485D-04 0.387D-03
 Coeff-Com:  0.952D-06-0.107D-02-0.890D-02 0.147D-01 0.217D-01-0.373D-01
 Coeff-Com: -0.176D+00 0.284D+00 0.902D+00
 Coeff:     -0.772D-06 0.224D-05-0.110D-04-0.434D-04 0.485D-04 0.387D-03
 Coeff:      0.952D-06-0.107D-02-0.890D-02 0.147D-01 0.217D-01-0.373D-01
 Coeff:     -0.176D+00 0.284D+00 0.902D+00
 Gap=     0.094 Goal=   None    Shift=    0.000
 Gap=     0.208 Goal=   None    Shift=    0.000
 RMSDP=3.18D-09 MaxDP=2.83D-07 DE= 1.14D-12 OVMax= 1.46D-07

 SCF Done:  E(UwB97XD) =  -323.505164506     A.U. after   17 cycles
             Convg  =    0.3182D-08             -V/T =  2.0075
 <Sx>= 0.0000 <Sy>= 0.0000 <Sz>= 0.5000 <S**2>= 0.7544 S= 0.5022
 <L.S>= 0.000000000000E+00
 KE= 3.211009756962D+02 PE=-1.265988432126D+03 EE= 3.715405657826D+02
 Annihilation of the first spin contaminant:
 S**2 before annihilation     0.7544,   after     0.7500
 Leave Link  502 at Thu Oct 13 23:35:14 2022, MaxMem= 3276800000 cpu:     481.5
 (Enter /local/g09-source/g09/l601.exe)
 Copying SCF densities to generalized density rwf, IOpCl= 1 IROHF=0.

 **********************************************************************

            Population analysis using the SCF density.

 **********************************************************************

 Alpha  occ. eigenvalues --  -19.05957 -19.03860 -14.38622 -10.16180 -10.16127
 Alpha  occ. eigenvalues --  -10.14230  -1.03983  -0.87093  -0.75746  -0.68562
 Alpha  occ. eigenvalues --   -0.59531  -0.48203  -0.43045  -0.42123  -0.38537
 Alpha  occ. eigenvalues --   -0.36485  -0.35419  -0.31353  -0.29707  -0.25859
 Alpha  occ. eigenvalues --   -0.24009  -0.16809  -0.15776  -0.13042  -0.02272
 Alpha virt. eigenvalues --    0.07138   0.07403   0.07416   0.08026   0.15514
 Alpha virt. eigenvalues --    0.17006   0.17226   0.18206   0.20458   0.20924
 Alpha virt. eigenvalues --    0.23320   0.24822   0.25204   0.27026   0.27931
 Alpha virt. eigenvalues --    0.28487   0.29279   0.29623   0.32856   0.33943
 Alpha virt. eigenvalues --    0.35970   0.37651   0.40479   0.41476   0.43130
 Alpha virt. eigenvalues --    0.44206   0.44448   0.45446   0.47865   0.48996
 Alpha virt. eigenvalues --    0.49431   0.51331   0.51472   0.52642   0.53109
 Alpha virt. eigenvalues --    0.53872   0.55333   0.56935   0.58867   0.61932
 Alpha virt. eigenvalues --    0.64001   0.66573   0.68893   0.73716   0.87583
 Alpha virt. eigenvalues --    0.88984   0.90338   0.91396   0.91922   0.98046
 Alpha virt. eigenvalues --    0.98988   1.05775   1.11248   1.14568   1.15016
 Alpha virt. eigenvalues --    1.21954   1.22873   1.26258   1.28250   1.31178
 Alpha virt. eigenvalues --    1.32346   1.35954   1.38868   1.42971   1.48300
 Alpha virt. eigenvalues --    1.49908   1.52537   1.54868   1.57397   1.58172
 Alpha virt. eigenvalues --    1.60583   1.63252   1.66022   1.70664   1.76969
 Alpha virt. eigenvalues --    1.78163   1.86458   1.93112   1.98069   1.99872
 Alpha virt. eigenvalues --    2.05650   2.08978   2.12304   2.13731   2.15338
 Alpha virt. eigenvalues --    2.16949   2.17888   2.23095   2.25101   2.27243
 Alpha virt. eigenvalues --    2.30386   2.31534   2.36808   2.39745   2.45979
 Alpha virt. eigenvalues --    2.48312   2.51827   2.53992   2.55878   2.60397
 Alpha virt. eigenvalues --    2.64140   2.68956   2.70924   2.74621   2.79274
 Alpha virt. eigenvalues --    2.80826   2.88767   2.94111   2.95263   2.98359
 Alpha virt. eigenvalues --    3.01550   3.08457   3.10412   3.18306   3.22214
 Alpha virt. eigenvalues --    3.28870   3.30599   3.33851   3.37428   3.48391
 Alpha virt. eigenvalues --    3.54174   3.73068   3.76981   3.78043   3.86066
 Alpha virt. eigenvalues --    4.00003   4.49473   4.63146   4.67502   4.85775
 Alpha virt. eigenvalues --    4.93899   4.95737
  Beta  occ. eigenvalues --  -19.05319 -19.03443 -14.37622 -10.16195 -10.16181
  Beta  occ. eigenvalues --  -10.14154  -1.02132  -0.85746  -0.75317  -0.67905
  Beta  occ. eigenvalues --   -0.59055  -0.47370  -0.42124  -0.41169  -0.37506
  Beta  occ. eigenvalues --   -0.35750  -0.33464  -0.30803  -0.29186  -0.25741
  Beta  occ. eigenvalues --   -0.22164  -0.15089  -0.12447  -0.12180
  Beta virt. eigenvalues --    0.08584   0.08904   0.08970   0.10359   0.16910
  Beta virt. eigenvalues --    0.18538   0.18766   0.19710   0.21653   0.22127
  Beta virt. eigenvalues --    0.23609   0.24161   0.25653   0.25975   0.27696
  Beta virt. eigenvalues --    0.28787   0.29331   0.30318   0.30486   0.33439
  Beta virt. eigenvalues --    0.34846   0.36444   0.37990   0.40945   0.41838
  Beta virt. eigenvalues --    0.43474   0.44640   0.45022   0.46133   0.48234
  Beta virt. eigenvalues --    0.49440   0.49824   0.51417   0.51839   0.53111
  Beta virt. eigenvalues --    0.53628   0.54254   0.55523   0.57586   0.59113
  Beta virt. eigenvalues --    0.62203   0.64581   0.67275   0.69470   0.74136
  Beta virt. eigenvalues --    0.87760   0.89153   0.90660   0.91497   0.92139
  Beta virt. eigenvalues --    0.98220   0.99231   1.05841   1.11342   1.14729
  Beta virt. eigenvalues --    1.15738   1.22982   1.24092   1.26721   1.28978
  Beta virt. eigenvalues --    1.31397   1.32618   1.36129   1.39128   1.43263
  Beta virt. eigenvalues --    1.49764   1.50265   1.53155   1.55987   1.57948
  Beta virt. eigenvalues --    1.58700   1.61368   1.64034   1.66338   1.71482
  Beta virt. eigenvalues --    1.77559   1.79006   1.87043   1.93394   1.98349
  Beta virt. eigenvalues --    2.00175   2.06147   2.09816   2.13174   2.14295
  Beta virt. eigenvalues --    2.15727   2.17497   2.18287   2.23387   2.25981
  Beta virt. eigenvalues --    2.27576   2.30661   2.32221   2.37373   2.40398
  Beta virt. eigenvalues --    2.46383   2.48907   2.52251   2.54409   2.56394
  Beta virt. eigenvalues --    2.60601   2.64970   2.69225   2.71207   2.75165
  Beta virt. eigenvalues --    2.79915   2.81306   2.90262   2.94497   2.96113
  Beta virt. eigenvalues --    2.98697   3.01858   3.08746   3.10479   3.18735
  Beta virt. eigenvalues --    3.22757   3.29678   3.30911   3.34496   3.37487
  Beta virt. eigenvalues --    3.48947   3.54669   3.73138   3.76996   3.78159
  Beta virt. eigenvalues --    3.86108   4.00072   4.50917   4.63613   4.68065
  Beta virt. eigenvalues --    4.86057   4.94466   4.96071
     Alpha Molecular Orbital Coefficients:
                           1         2         3         4         5
                           O         O         O         O         O
     Eigenvalues --  -.19059566658380E+02 -.19038602210122E+02 -.14386215176510E+02 -.10161803625348E+02 -.10161268410768E+02
   1 1   C  1S       -.19450004250389E-05 -.11273486553285E-04 0.22750970610288E-04 -.77968364336264E-02 0.99349503582078E+00
   2        2S       0.47727054096421E-04 0.22376232538549E-04 0.98931650341754E-04 -.60451986310452E-03 0.48426016432096E-01
   3        3S       0.16475401770649E-03 0.57804537928575E-03 0.82270046334064E-03 0.79033239556490E-03 -.24045201093906E-01
   4        4S       -.56572194726072E-03 0.16811664879631E-02 0.12742888615058E-02 -.14297511892686E-01 -.19982269647630E-01
   5        5PX      0.15742419800434E-04 0.18820279804167E-05 -.81462248841082E-04 -.11375922524078E-03 0.13107599621704E-04
   6        5PY      -.18596943982507E-05 0.74981635664504E-04 -.27328435170035E-03 -.39730755494400E-04 -.70327881495369E-03
   7        5PZ      -.14056418004441E-04 -.19612376484911E-04 0.20789269500218E-03 -.71279105876456E-04 0.57540240588332E-03
   8        6PX      -.18676291144073E-03 0.74023271964609E-04 0.79659600700441E-04 0.13303794360895E-03 -.14466321942325E-02
   9        6PY      -.52823563635964E-04 -.47828375929894E-03 -.24394708051409E-03 -.70516765777668E-04 0.90244550417945E-03
  10        6PZ      0.20125796198894E-03 0.50944053718020E-04 0.11278034086892E-03 0.21998926140840E-03 -.16619404781580E-02
  11        7PX      0.15003257109829E-02 -.11484086176007E-02 0.14928807147628E-03 -.33296624715191E-02 -.10604753768547E-02
  12        7PY      0.16089087870454E-04 -.47065094566602E-03 0.70853243058245E-04 -.15627745368448E-02 0.16409494488813E-02
  13        7PZ      -.42386596900098E-03 0.14825915195891E-02 0.14905247428556E-03 -.14766148829484E-02 -.25828341626827E-02
  14        8XX      -.63726517017769E-04 -.65376206383444E-04 -.61516663274691E-06 -.65014159429773E-04 -.76441751951800E-02
  15        8YY      0.19987322138188E-04 -.13471723656117E-03 0.39007683491114E-04 -.37169316641939E-04 -.72918832942878E-02
  16        8ZZ      -.44754572128882E-04 -.25461547189657E-04 0.21018516161678E-04 0.26713519359391E-05 -.75450298162639E-02
  17        8XY      -.64735089398312E-04 0.77547775355146E-04 -.54753387835827E-05 0.22084167152875E-04 -.21074825032740E-03
  18        8XZ      0.64441329072368E-04 -.37540139258626E-04 -.23260137900598E-04 -.11102475850587E-06 -.75050116581661E-04
  19        8YZ      -.53872809475412E-05 0.24403622105397E-04 -.36537014024142E-04 0.32938713861023E-04 -.18952091053300E-03
  20 2   C  1S       -.73538144240555E-05 0.20676787630114E-04 0.51760941252111E-05 0.33643360524718E-02 0.46160483950562E-02
  21        2S       -.32373422363985E-04 0.69680792713146E-04 0.69412248901801E-04 -.89548822227443E-04 -.30584000424510E-04
  22        3S       0.36917541616056E-03 -.57582579877006E-03 -.18025258877446E-03 0.52149312562339E-02 0.50322498790006E-02
  23        4S       0.34227350688567E-02 0.15228645575416E-02 -.85013840783432E-03 0.16580504573470E-01 0.10809006712008E-01
  24        5PX      -.14205689283515E-05 0.65746456384181E-05 0.27153220805061E-04 0.16125546695759E-04 -.43566004288938E-04
  25        5PY      0.70011461883557E-05 -.30719544251012E-04 0.17264829479441E-04 0.82439445331888E-04 -.59327612145743E-04
  26        5PZ      0.26323631310013E-06 -.20365261139161E-04 0.16611739284788E-05 -.64181325847585E-05 0.33825530988977E-06
  27        6PX      -.11008325957109E-03 0.36627633007578E-04 0.68127887907381E-04 0.68442419012991E-03 -.21405669840883E-02
  28        6PY      -.17218477894652E-03 0.12945512579026E-03 0.18329109543682E-03 0.63758715971086E-03 -.13322127789313E-02
  29        6PZ      -.13581602375393E-03 0.13253141388499E-03 -.40866398441374E-04 0.25708546933202E-02 -.11616859777308E-03
  30        7PX      -.65476812910964E-03 -.30652032628249E-03 0.13719835649333E-03 -.33343110898864E-02 -.13088802523496E-02
  31        7PY      -.30737821598323E-03 -.41732037463341E-03 0.28364031447121E-04 -.23284337319126E-02 -.66294983664239E-03
  32        7PZ      0.12645798183162E-02 -.28690415813922E-03 -.10043824581638E-03 0.13512243380378E-02 0.15174387126898E-02
  33        8XX      0.39770149787065E-05 0.34042099267600E-04 -.17785001416347E-04 -.17163333514620E-03 -.39022647230066E-03
  34        8YY      -.15632487240633E-04 0.40623806708856E-04 -.47618129740364E-04 -.19850819530539E-03 -.19345832439477E-03
  35        8ZZ      -.94693369480074E-05 0.48178760091796E-04 0.14210023797247E-05 -.38517699074285E-03 -.19120848059221E-03
  36        8XY      0.56846538253032E-05 -.91613487155186E-05 -.45583232541071E-04 -.74126438043262E-04 -.34007900470210E-04
  37        8XZ      0.16017047493652E-04 0.47286704510918E-05 0.21553458275460E-04 -.32166025770959E-05 -.83380339735725E-04
  38        8YZ      0.79103894285779E-05 -.11018255004045E-05 0.13195375818800E-04 -.74998246608880E-04 -.49851749641018E-04
  39 3   N  1S       -.34531641710388E-04 -.21186217399806E-04 0.99278267045558E+00 0.22716064237342E-04 -.19106701331576E-03
  40        2S       0.21758374597417E-03 0.20510649099907E-03 0.34390027739237E-01 0.95413506967946E-04 0.14431959594971E-04
  41        3S       0.39433012177258E-03 -.17817910873013E-03 0.28548558460151E-02 -.45473555891831E-03 0.20840692816215E-02
  42        4S       0.81351688238401E-02 0.45280789831189E-02 -.59085745830031E-04 -.48601035300562E-03 0.18948253036921E-01
  43        5S       0.20983378546478E-03 -.13934871251821E-03 -.20102672949768E-03 -.23024308918642E-03 0.20898544895545E-02
  44        6S       -.12670643192500E-04 0.15279822200039E-04 0.25514968269530E-04 0.64827300328546E-04 -.31115314753514E-03
  45        7PX      -.27516094334773E-03 0.26697998402753E-03 -.11013715634939E-03 -.19138246914677E-05 -.27494221187684E-04
  46        7PY      -.64745819911966E-04 -.19006537903642E-03 -.69012146297201E-04 -.41788996774465E-04 -.11415409681170E-03
  47        7PZ      0.15838086856218E-03 -.27007982241529E-04 -.70454169891259E-04 -.35469217841170E-04 0.12100853686183E-03
  48        8PX      0.15399228534598E-03 -.11438899907855E-03 -.16631590897079E-03 -.17630926094894E-03 -.72058045682492E-03
  49        8PY      -.36148145466010E-04 -.20269110855870E-03 -.63148853125111E-04 -.25924644171801E-03 0.17443591913052E-02
  50        8PZ      -.57331506765416E-04 0.13683723942869E-03 0.30967163830363E-03 0.28979432344384E-03 -.37776191169381E-03
  51        9PX      -.90597493221520E-02 0.72762401354416E-02 0.89422887728925E-04 0.96857543888942E-03 0.15224600193475E-03
  52        9PY      -.16569026399795E-03 -.31196319706949E-02 -.33367606797608E-03 0.18166228072453E-02 0.59063453416333E-02
  53        9PZ      0.44748007489403E-02 -.14763227753096E-02 -.16895693157626E-04 -.11775087211805E-02 -.27596805980894E-02
  54       10PX      0.69181350558941E-04 0.10489031442189E-04 -.26786526754203E-04 -.28619506078910E-03 -.34684886028768E-04
  55       10PY      0.23791986776012E-03 0.77114173782903E-04 -.36115237233837E-04 -.17756909114625E-03 0.37883376343429E-03
  56       10PZ      -.73026741036596E-04 0.51815897551724E-04 0.22375486765940E-04 0.26683559128218E-03 -.25594720844697E-03
  57       11PX      -.13195128752735E-04 -.51301902419693E-05 0.55684071006519E-05 0.97473928034064E-04 0.14859675333832E-04
  58       11PY      -.39334842049153E-04 -.17899004663402E-04 0.46368915372454E-05 0.74263758475516E-04 -.46849634740087E-04
  59       11PZ      0.24294317103078E-05 -.23115340447052E-04 -.49666739306590E-05 -.58257978592461E-04 0.22518189788780E-04
  60       12XX      -.21099020182230E-03 -.10600707578596E-04 -.80735382841536E-02 0.47912249411786E-04 -.24052918892319E-03
  61       12YY      -.87026034748760E-04 -.83416389414677E-05 -.80994835028090E-02 0.22049204996147E-04 -.30375869589018E-03
  62       12ZZ      -.15264783109156E-03 -.47872671107095E-04 -.79359040492613E-02 0.60331765478929E-04 -.17530056685846E-03
  63       12XY      -.46608399777559E-04 -.15605236506327E-04 0.98850053126929E-04 -.25390611050309E-04 0.98523487059201E-04
  64       12XZ      0.81891789390333E-04 -.34737098249640E-04 0.84102890206561E-04 -.30143799614247E-04 0.18955097038208E-03
  65       12YZ      0.14861533162618E-05 -.28055453632116E-04 0.11663404702508E-03 -.37146986013817E-04 0.34176296922069E-03
  66 4   H  1S       0.24741473674337E-04 0.19894971699805E-04 -.73208773300252E-04 0.25673368868730E-04 -.11652895583871E-03
  67        2S       -.29677454848745E-03 0.24334778449847E-03 -.11803965074631E-03 -.56365678367183E-03 0.28452348645474E-02
  68        3PX      -.29470376558716E-04 0.36515348703436E-04 -.20936144968663E-04 -.49447712315942E-04 -.14312207172898E-03
  69        3PY      -.13182137457593E-04 -.12281050975723E-04 0.79064257979603E-04 -.42013932873108E-04 0.16693845166790E-03
  70        3PZ      0.15155127989593E-04 -.10361460114355E-04 -.39994731359825E-04 -.68328212990971E-04 0.49661742400889E-04
  71 5   H  1S       -.28477407632590E-04 0.18187885872219E-04 -.83253557140835E-04 -.33704262196101E-04 0.16760423172747E-03
  72        2S       0.48471502556623E-03 -.43466130345203E-03 -.20719275660762E-03 -.90740088598889E-05 0.28165782586114E-02
  73        3PX      0.12290363710002E-04 0.98840771791745E-05 0.84696538243226E-05 0.17260366413383E-04 0.75384674171322E-04
  74        3PY      0.13175944310358E-04 -.90357775477651E-05 0.21428516784076E-04 0.27627563812388E-04 -.14035707737749E-03
  75        3PZ      0.86766078204966E-05 -.17645823674084E-04 -.70498176619242E-04 0.13315906861051E-04 -.15083711271194E-03
  76 6   O  1S       0.99269679207015E+00 0.15639154911429E-03 -.32883596497127E-04 0.46466774680806E-04 0.24310990952378E-05
  77        2S       0.24730629327965E-01 0.15008782776476E-03 0.15556345588639E-03 0.20186355499825E-03 -.62029114867952E-04
  78        3S       0.15705048315181E-01 -.71858552850116E-03 0.19512316525503E-04 -.11363419909216E-02 -.21181634319749E-03
  79        4S       -.18831404361134E-01 0.49126573076460E-02 -.49027067741637E-03 0.29052166778753E-02 -.26473904956699E-02
  80        5PX      0.10744099917563E-02 -.22943301501264E-04 0.21461343203917E-03 0.12752193169084E-04 0.25056273688082E-04
  81        5PY      0.30324303457810E-03 0.77404764765414E-05 0.56040958793578E-04 0.17948500604464E-04 -.29621198132031E-04
  82        5PZ      -.65923508137850E-03 0.27711005968685E-05 -.12443137979517E-03 0.12604575303000E-04 0.21147416758563E-04
  83        6PX      -.51615703334257E-03 0.45735618362130E-04 0.75187802380467E-04 -.20817185756134E-03 0.11760818783940E-03
  84        6PY      -.13387856349049E-03 0.92657160732919E-05 0.13525464238829E-04 -.83010888712217E-04 -.39298463095943E-04
  85        6PZ      0.33121281127169E-03 -.35087331105683E-05 -.78295399230789E-04 0.28795458503029E-05 -.12706228640574E-03
  86        7PX      -.25066381160526E-02 0.37268971738845E-03 -.24456318514018E-03 0.64211894116398E-03 -.64953422670631E-03
  87        7PY      -.91076141228524E-03 0.72335095274276E-03 -.34783500800281E-04 -.20954479711421E-04 -.13874295932036E-02
  88        7PZ      0.14797542898261E-02 -.71167629489345E-03 0.15082120457070E-03 0.13826647681137E-04 0.88099034513321E-03
  89        8XX      -.83896539930501E-02 -.40711965578091E-05 -.14167013298758E-04 0.97265302944241E-04 0.11182702089619E-03
  90        8YY      -.83395407015927E-02 0.99857989242856E-04 0.12889225748140E-04 0.13482515228654E-03 0.45486119207107E-05
  91        8ZZ      -.83156367199184E-02 0.87086169447083E-04 0.20066334320714E-05 0.14441034312852E-03 -.88978900910468E-06
  92        8XY      0.56014009409839E-05 0.51263081357833E-04 -.38618939983269E-05 -.20954996360781E-04 0.59163941348326E-05
  93        8XZ      0.65072868806555E-04 0.18399083898950E-04 0.77414015897300E-05 0.16033382184824E-04 -.13509561854369E-03
  94        8YZ      0.36719219572783E-04 -.33890432377481E-04 -.43343377030792E-05 0.44487084981448E-05 -.95939773911891E-04
  95 7   O  1S       -.10002169469426E-03 0.99274851156675E+00 -.31750307071721E-04 0.30847881961527E-04 -.77347578456444E-04
  96        2S       0.14490741057291E-03 0.24716050322544E-01 0.11158811300812E-03 0.13355133748942E-03 -.48150754225293E-03
  97        3S       -.78753511037747E-03 0.15076386221398E-01 0.21793588446473E-03 -.46934816316464E-03 0.21532884464860E-02
  98        4S       0.54452878338460E-02 -.15936304654777E-01 -.60288298318946E-03 0.21895527203579E-03 -.89190687634235E-03
  99        5PX      0.12237225431903E-04 -.88421015796519E-03 -.20580331896677E-03 -.15841715945065E-04 0.56661086003383E-06
 100        5PY      -.38737909007102E-05 0.70224190622297E-03 0.16990815506716E-03 0.36178165245047E-04 -.84462465958195E-04
 101        5PZ      -.92574329382370E-05 0.81978635038538E-04 0.15469669232994E-04 -.33093314219848E-05 0.59132690683106E-04
 102        6PX      -.30938114495502E-04 0.54054961210789E-03 -.22275783508293E-03 0.14931289234439E-03 -.69966666696419E-03
 103        6PY      0.51868006298265E-04 -.36466028063017E-03 0.14180447706842E-03 -.14339187606083E-03 0.12882393257176E-02
 104        6PZ      0.11956944126707E-04 -.63385309110659E-04 0.83207468237061E-05 -.21691991149787E-04 -.39643775405955E-03
 105        7PX      -.42617332091688E-03 0.16516355630582E-02 0.22103724512060E-03 -.58288312565439E-03 -.20411741384315E-04
 106        7PY      0.11775464793251E-02 -.21465633852845E-02 -.13209223517014E-03 -.75676830742573E-03 -.16975131697226E-02
 107        7PZ      -.49340090074859E-03 0.64090707222316E-04 0.16523629966141E-04 0.12830779667692E-03 0.34857918908020E-03
 108        8XX      0.87342055141748E-05 -.83276146381571E-02 0.53852943296775E-04 0.96271476967128E-04 -.16990984617478E-03
 109        8YY      0.14300277833212E-03 -.82833770062113E-02 0.22354346906871E-04 0.33781587713745E-04 0.27172312706162E-04
 110        8ZZ      0.73923530192957E-04 -.81986317457419E-02 -.20535504791180E-04 0.13079124672774E-03 -.28260065942457E-03
 111        8XY      -.16141564403823E-04 0.10754964363282E-03 -.57399007541636E-04 0.97377678423189E-05 -.22724612348836E-03
 112        8XZ      0.46691827853552E-04 0.34287849129276E-04 -.47042711870995E-05 0.15367750541457E-04 -.53082649305635E-05
 113        8YZ      -.29538331721363E-04 0.19627585811570E-04 0.10581388051174E-04 -.10582827650659E-04 -.19865089617853E-03
 114 8   C  1S       -.13268141149219E-04 -.52638571927056E-05 0.83304297172255E-05 0.99337585026394E+00 0.76724353094280E-02
 115        2S       -.44823850333146E-04 -.11318006919324E-04 0.22101755559984E-04 0.47423243478870E-01 0.13869705744973E-03
 116        3S       0.38280222343912E-03 -.96606335678183E-06 -.65768367658361E-04 -.19210314588719E-01 0.21274424722420E-03
 117        4S       -.30925270313949E-02 -.96227497400697E-03 0.30077631179961E-03 -.27843890559613E-02 -.40060668861820E-02
 118        5PX      -.75367138402894E-05 0.19944758000348E-05 -.13347842573928E-04 -.72442375469109E-04 0.92889063478988E-04
 119        5PY      -.17411888336406E-05 0.40173193111214E-05 -.11550181429054E-04 0.54254562743889E-04 0.10208744090780E-03
 120        5PZ      -.10484998983674E-04 -.40813113323554E-05 -.67593970265384E-05 -.10135628390167E-03 0.91259190679822E-04
 121        6PX      0.75178210404755E-04 -.24064018259768E-04 0.71089447205826E-04 0.97815463511114E-03 -.39170188779408E-03
 122        6PY      0.79961356697169E-04 -.24273647883921E-04 0.29317277966366E-04 0.13002384053763E-02 -.53718121585481E-03
 123        6PZ      -.33685395914308E-04 0.11397316227559E-03 0.34093902078059E-04 0.21632011817566E-02 0.22180416687299E-03
 124        7PX      0.45412736823589E-03 0.27622119645078E-03 -.12070509903740E-04 0.14710781084234E-04 0.25324969774374E-04
 125        7PY      0.65857191763315E-03 0.38905142944852E-03 -.39248121060404E-04 0.28855442652683E-03 0.36922107878423E-03
 126        7PZ      0.46893441059385E-03 0.11173318762528E-03 -.51738845374246E-04 0.31192945546447E-03 0.10716997198365E-02
 127        8XX      -.25017278259493E-04 -.22469628194440E-04 0.17095706099211E-04 -.77220232339631E-02 -.13573117189583E-03
 128        8YY      -.20808718116637E-04 -.63437817643891E-05 0.27447357592299E-04 -.75093924493299E-02 -.18009073339590E-03
 129        8ZZ      -.27618136262493E-04 -.11094243736607E-04 0.11415842128873E-04 -.79647399193485E-02 -.16973833781784E-03
 130        8XY      0.16975926565837E-05 -.22090081538882E-05 0.12496171514685E-05 0.30134843868101E-03 0.45313502374932E-04
 131        8XZ      -.50977353992357E-06 0.65517109491372E-06 -.27863401148606E-05 -.17816369844108E-04 0.98098880571571E-05
 132        8YZ      0.52440491781436E-05 -.45518708800355E-05 0.16503680599809E-05 -.33264648425145E-03 -.62621099356870E-05
 133 9   H  1S       0.61644527914424E-06 0.62599567415926E-04 0.22536126472193E-04 -.18668981778526E-03 -.91502979988852E-04
 134        2S       -.36423902297888E-05 -.58479398829918E-04 0.10295217394029E-04 -.12576231006025E-02 -.17982594642941E-03
 135        3PX      0.42856501065935E-05 0.16975816364244E-04 0.84572213509955E-05 -.80904901190356E-05 -.15960629093438E-03
 136        3PY      0.17800668701080E-05 -.28161315523405E-04 -.72765227664731E-05 -.13873794717515E-04 -.31569569704698E-04
 137        3PZ      0.34864962430786E-05 -.62640772882083E-05 0.24134446963634E-05 -.90981834904499E-04 -.21824413738919E-05
 138 10  H  1S       0.60049871755258E-05 0.57596711984342E-05 -.40384038319188E-05 -.86147612636181E-04 -.15831206842824E-03
 139        2S       -.11714824747926E-03 0.43337808540973E-04 -.41221157709698E-04 -.29493933609559E-03 -.22892264777288E-03
 140        3PX      0.36170505263685E-05 0.65077511799418E-06 0.14142600787256E-05 -.15740662549500E-04 -.31383518281746E-04
 141        3PY      0.54684894890999E-05 0.25106137052616E-05 -.72103583536688E-05 -.53587454575409E-04 -.15873936431567E-04
 142        3PZ      0.66186636490764E-05 -.46088057750848E-05 0.21533867647241E-05 -.14401289209922E-04 0.10946403289125E-04
 143 11  H  1S       -.18765370876496E-04 -.23420817716113E-05 0.13675853776722E-04 -.27019232663043E-03 -.52416422581346E-04
 144        2S       0.99593191747862E-04 -.24625845574443E-03 -.96601064544523E-05 0.34277383933979E-02 -.90381956885736E-03
 145        3PX      0.63473280108865E-05 0.25059998517978E-05 -.58403542257139E-05 -.22910819468141E-04 0.74104853243583E-04
 146        3PY      0.22359669160151E-05 -.13938005967316E-04 -.77188229581107E-05 -.18177388679563E-03 0.46261288089568E-04
 147        3PZ      -.14675417013389E-04 -.67463702006645E-05 0.14852742274162E-05 0.71949011658595E-04 0.66150652498695E-04
 148 12  H  1S       -.13267351195917E-04 0.11178774025851E-05 -.47747671613737E-05 -.49333258751947E-03 0.65360627986080E-05
 149        2S       -.17404379948748E-03 0.52708037713994E-04 -.57008963722132E-04 0.29228070185044E-02 0.69195347256844E-03
 150        3PX      0.39266943932758E-06 -.27869259439005E-05 0.33080353839930E-05 0.19320929293474E-03 -.24867258856815E-04
 151        3PY      0.47168712884680E-05 -.32197110341594E-05 0.92835108022893E-05 0.18923621782545E-03 -.34894381780799E-04
 152        3PZ      0.84429453294441E-06 -.56078534503943E-05 -.40555386629328E-06 -.66435636584341E-04 -.33628214378950E-04
 153 13  H  1S       0.97786356683782E-06 -.72754734664205E-05 0.30358242545730E-04 0.21225733426046E-03 -.14092756015978E-03
 154        2S       -.15871565044977E-03 -.36600412979750E-04 -.13493522100634E-04 0.26965094277835E-02 0.60174805005721E-04
 155        3PX      0.53941176588334E-05 0.46787814251529E-06 -.12953165252515E-05 -.18905529870522E-03 -.12489876263626E-04
 156        3PY      0.11481285012794E-04 0.70139327507874E-05 -.63490240568036E-05 0.60227710773657E-04 -.24118916980068E-04
 157        3PZ      0.12812093100792E-05 0.30826776042274E-05 -.12802026426169E-05 -.97142818584721E-05 -.26526923456445E-04
                           6         7         8         9        10
                           O         O         O         O         O
     Eigenvalues --  -.10142302895531E+02 -.10398301852142E+01 -.87093077384972E+00 -.75746245743146E+00 -.68562035731366E+00
   1 1   C  1S       -.48382010867497E-02 -.51182843760932E-01 0.27712879634178E-01 -.13029150882744E+00 0.89611220388361E-01
   2        2S       -.50498041903013E-03 0.95991049203276E-01 -.53584827587456E-01 0.24472064268484E+00 -.17700482496282E+00
   3        3S       0.51144847333961E-02 0.10138300574664E-01 -.34454735015919E-01 0.20225877680349E+00 -.13822778521438E+00
   4        4S       0.11245270100257E-02 0.46981142214218E-01 -.47500448640546E-01 0.60677093955057E-01 -.33292054602069E-01
   5        5PX      0.66573166087125E-05 -.96264614033643E-02 -.30349316265669E-01 0.22136606706363E-01 0.65219669340674E-01
   6        5PY      0.56828967905069E-04 -.60530754900953E-01 0.32846206609576E-01 -.80108073543397E-02 0.10546632615738E+00
   7        5PZ      0.17772738408360E-04 0.44985515964938E-01 -.90275953228630E-02 0.40572146504571E-01 -.51785582105445E-01
   8        6PX      0.26175532628209E-02 -.27240659467765E-02 -.19021034598262E-01 0.93591245516405E-02 0.89117362032582E-02
   9        6PY      0.23081702956009E-02 0.12500496175358E-01 0.87047505284554E-02 0.74662285650063E-02 0.10762915997513E-02
  10        6PZ      0.22420609806156E-04 -.56868638241543E-02 0.67425719805460E-02 0.53292624770268E-02 0.83483417664963E-04
  11        7PX      0.10041822104562E-03 -.10791809599936E-02 0.16727368488766E-01 0.73814327696849E-03 0.53624306484280E-02
  12        7PY      -.10070784385873E-03 -.11154525673374E-01 0.40825672981471E-02 -.16575196914277E-01 0.21109116964863E-01
  13        7PZ      0.33290548051985E-03 0.12843037239833E-01 -.17904114269795E-01 0.10095070539599E-01 -.45112888295943E-02
  14        8XX      -.24212048358482E-03 -.55986350597324E-02 0.35243989885059E-02 -.14735433776347E-02 0.10889178687704E-01
  15        8YY      -.18314953719367E-03 0.54050472479850E-02 -.45867599401886E-02 -.19482641481216E-02 -.20185611090206E-02
  16        8ZZ      -.10888874906871E-03 0.85724533069586E-03 0.25383665819689E-02 -.53119442338344E-02 0.15815912335797E-02
  17        8XY      -.65250940614531E-04 0.41147938396631E-02 0.41945887561046E-02 0.53386100799503E-02 0.77584350163498E-03
  18        8XZ      0.37481561868464E-06 -.24287798519668E-02 -.43859524042484E-02 -.14094363472978E-02 0.36965877289358E-02
  19        8YZ      0.19911560542387E-04 -.10216860388569E-01 0.27256618436673E-02 -.43701183350878E-02 0.95840933692255E-02
  20 2   C  1S       0.99345104748044E+00 -.82648172642811E-02 0.15447635264757E-01 -.11873037626203E+00 -.80082963419021E-01
  21        2S       0.48543584590164E-01 0.14435881155716E-01 -.27469269666249E-01 0.21709602504674E+00 0.14802147004505E+00
  22        3S       -.24031320516767E-01 0.10514242288286E-01 -.11579336084339E-01 0.17582609666252E+00 0.13629476835687E+00
  23        4S       -.37864011811154E-02 -.15655967361579E-01 0.58211560054044E-01 -.51523924535643E-02 -.18505543270767E-01
  24        5PX      -.10385387894795E-03 -.85633772686946E-02 0.75514931668903E-02 -.38475940351308E-01 0.39844058260315E-01
  25        5PY      0.52552543678954E-05 -.87024525393699E-02 0.11807939239782E-01 -.15465139313442E-01 0.45869908368198E-01
  26        5PZ      -.21836656897386E-03 0.14161214110126E-02 0.70584476771698E-04 0.95871859958675E-02 0.42775555375203E-01
  27        6PX      0.18766703143765E-02 -.45769617354487E-02 0.19395629518878E-03 -.82692265195990E-02 0.13907593843672E-02
  28        6PY      0.12465696821671E-02 -.44240790570582E-02 -.15952726329812E-02 0.49338525314297E-02 0.13951680080223E-01
  29        6PZ      -.60602179676148E-03 -.11239472860999E-02 -.87691533565016E-02 -.13685907998053E-02 0.71665995843662E-02
  30        7PX      0.21406187099687E-03 -.14279469830097E-02 -.94795462174664E-02 -.33091728898096E-03 0.45012745011384E-02
  31        7PY      0.33285453283238E-03 0.62794999033645E-03 -.36490144635938E-03 0.44891948040052E-02 -.41110244870413E-02
  32        7PZ      -.10737401294439E-04 -.79830663521356E-02 0.22763304496260E-01 -.63938207835178E-02 -.61462828104636E-02
  33        8XX      -.78662437034921E-02 0.14679930515758E-02 -.34109216419339E-03 0.44483055763799E-03 -.77409040866843E-02
  34        8YY      -.76253343125609E-02 0.11290155898945E-02 -.56948326907475E-03 -.34721741123095E-02 -.28254054897408E-02
  35        8ZZ      -.77261877832435E-02 -.43118169447058E-03 0.67276275347360E-03 -.10485286378759E-02 0.55453155164925E-02
  36        8XY      -.26474167688651E-03 0.20746917317514E-02 -.12545628056590E-02 0.40481559637454E-02 -.35596244243887E-02
  37        8XZ      -.91750322407208E-04 -.14615067595880E-03 0.25837202914992E-04 0.28450442102557E-03 0.73004574762173E-04
  38        8YZ      -.18875263202603E-03 -.16451054682057E-03 -.72153040893217E-04 0.29364768916084E-02 0.39061570776286E-02
  39 3   N  1S       -.30456660120807E-04 -.16464222983944E+00 0.13566527753264E-01 -.22133480554334E-01 0.54155303585774E-01
  40        2S       -.14014202107498E-03 0.34612344142790E+00 -.29379287722487E-01 0.47457542477661E-01 -.11969205884671E+00
  41        3S       -.38837796140020E-03 0.26609929057982E+00 -.29502403380560E-01 0.62081114943692E-01 -.14716099480379E+00
  42        4S       -.68267000153937E-03 0.11525426808378E+00 0.36724121448989E-01 -.16877406924813E+00 0.16149331628198E+00
  43        5S       0.34390830774256E-03 -.23141497562943E-01 0.79435600703041E-02 -.39502233654495E-02 0.23241363079668E-02
  44        6S       -.31937461287721E-04 0.44233490548925E-02 -.86673896960164E-03 0.34700653445161E-03 -.74648206188922E-03
  45        7PX      -.71291228238184E-04 -.22858870776268E-01 -.25421022216203E+00 -.14092015121910E-01 -.29311539586650E-02
  46        7PY      -.55504712560389E-04 -.30088198045318E-01 0.34286414207796E-01 0.17169444484645E+00 -.17335663938340E+00
  47        7PZ      0.35341096078697E-04 0.16155645281119E-01 0.10739481009650E+00 -.84726411701368E-01 0.12794647211394E+00
  48        8PX      0.14672379559788E-02 0.86129766663297E-02 -.33382388711959E-01 -.90892118647165E-02 0.27490092788990E-02
  49        8PY      0.22074624307266E-03 0.22717007244665E-01 0.50293898803591E-02 0.36473330811970E-01 -.47987745466343E-01
  50        8PZ      -.11787298379245E-02 -.18142482314224E-01 0.13502284962854E-01 -.15612007180551E-01 0.36006900644682E-01
  51        9PX      0.31480872898744E-02 -.45769408797179E-01 -.15812536717950E+00 -.37194757974228E-01 0.20471129945964E-01
  52        9PY      0.19593433119130E-02 -.53909692910676E-01 0.39933702920624E-01 0.87976589236808E-02 -.18905642793410E-01
  53        9PZ      -.28377567921555E-02 0.48679966373492E-01 0.57453424390300E-01 0.10092099677974E-01 -.10149649857859E-02
  54       10PX      0.17278170971138E-04 0.31107570970666E-02 0.93493368449258E-02 0.23031320645731E-02 -.20483411017276E-02
  55       10PY      -.38241822752586E-04 0.25839657054016E-02 -.14347615273906E-03 -.14660478037083E-02 0.10603427624522E-02
  56       10PZ      0.35124244220917E-04 -.29567334997425E-02 -.43225868611732E-02 0.60028115978276E-03 -.41079384596124E-03
  57       11PX      0.20196809019020E-04 -.98681010308427E-03 -.21200171202296E-02 -.72450957262379E-03 0.19719046807591E-03
  58       11PY      0.16315917335675E-04 -.79392138284099E-03 0.38391110669598E-03 0.27119905049917E-03 -.62330431976827E-03
  59       11PZ      -.45632287007416E-04 0.74289379662551E-03 0.90155153978600E-03 0.65456591859028E-04 -.54330212720355E-04
  60       12XX      -.12513226081696E-03 0.67056109924741E-02 0.37908051969148E-02 -.10648386445939E-01 0.13710130010420E-01
  61       12YY      0.45558004957860E-05 -.97732719619591E-02 -.87041240557435E-02 0.33180291649656E-02 -.94004276731377E-03
  62       12ZZ      -.12040403916939E-03 -.10401418619866E-01 0.45692324720982E-02 0.36340602456141E-02 -.20363472437554E-02
  63       12XY      -.36695494171642E-04 -.32067355953956E-02 0.17163824505552E-01 0.87257908929497E-02 -.39627920177679E-02
  64       12XZ      0.13129888693222E-03 -.11364786759459E-01 -.92006256875636E-02 0.20852221581916E-02 -.40965672320781E-02
  65       12YZ      -.70655096012939E-04 -.28225004319264E-02 -.32578307204926E-02 -.68559362610443E-02 0.64820392057256E-02
  66 4   H  1S       -.19721692316133E-03 0.17058608345905E-01 -.25609385283922E-02 0.74014492218554E-01 -.51059111242311E-01
  67        2S       -.39808677729753E-03 0.36554959319523E-02 -.10360368859374E-01 0.10460433085637E-01 -.77172136178194E-02
  68        3PX      0.40074323608715E-04 0.17946544200894E-02 -.50047544610638E-03 0.57699330673160E-02 -.28755040349968E-02
  69        3PY      -.49602316980622E-04 -.24052007394836E-02 0.26706209887617E-03 -.41981455272756E-02 0.43738901727447E-02
  70        3PZ      0.24905854002164E-04 0.47343868537171E-03 -.83991450691951E-04 0.75035701256902E-04 0.15899358043959E-04
  71 5   H  1S       -.69862838085340E-04 0.15030720157633E-01 -.15140838242974E-01 0.55986264034307E-01 -.42369161992146E-01
  72        2S       -.73024255360491E-03 0.12458507271201E-01 0.64497962869907E-02 0.12300186694101E-01 -.12939606955920E-01
  73        3PX      0.94119143950694E-04 0.84433309767567E-04 -.15065164279833E-04 -.65953659860963E-03 0.14761363832303E-02
  74        3PY      0.72741398816182E-04 0.38181322545480E-03 0.29028272568213E-03 0.30347235541612E-02 -.11506512231104E-02
  75        3PZ      -.10181370091176E-04 0.25311768192621E-02 -.16903512116498E-02 0.57109084645128E-02 -.44993146759032E-02
  76 6   O  1S       -.20911444292771E-04 -.11370244218520E+00 -.14665257470921E+00 0.31760981871479E-01 -.52194885860939E-01
  77        2S       -.13115183565684E-03 0.24187512922094E+00 0.31841601269427E+00 -.70714361080064E-01 0.11677311924511E+00
  78        3S       0.11335946713704E-02 0.24285993059861E+00 0.35657410230412E+00 -.86953328771245E-01 0.14736600742799E+00
  79        4S       0.43562850325425E-02 -.16025490741690E+00 -.21611706632168E+00 0.15051720821281E-01 -.34971712448696E-01
  80        5PX      -.10926688964470E-05 0.10046967450304E+00 0.77339925134399E-01 -.18167476223789E-01 0.11552972729020E-01
  81        5PY      -.76963611039105E-05 0.24437589704233E-01 0.31175304167116E-01 0.20107078006480E-01 -.25429613368386E-01
  82        5PZ      0.14359394840502E-04 -.59592485103075E-01 -.50773626148954E-01 -.23700662447008E-02 0.14308536550553E-01
  83        6PX      0.79519081285375E-03 0.43893915962377E-01 0.35324777201091E-01 -.14299892994773E-01 0.11179397395490E-01
  84        6PY      0.32409591039524E-03 0.72222740434088E-02 0.18699803272808E-01 0.90009730102014E-02 -.10403594770266E-01
  85        6PZ      -.47077951755067E-03 -.24627494153646E-01 -.25399338359866E-01 0.20290907349141E-02 0.32077745695003E-02
  86        7PX      0.34148484427532E-03 -.40734944318372E-01 -.42081003860317E-01 0.11302169358826E-01 -.13949693009771E-01
  87        7PY      -.35875232047767E-03 -.25262570993835E-02 -.23530468382744E-01 -.24106466216123E-02 0.27911639776023E-02
  88        7PZ      -.53083820228509E-04 0.20626979589925E-01 0.29569717517507E-01 -.19513420084228E-02 0.28112893787576E-02
  89        8XX      0.68671926659670E-04 0.94389399248517E-02 -.71264379648097E-03 -.28734990750911E-02 0.91108799586191E-03
  90        8YY      -.87146197661218E-04 -.10039347550153E-01 -.88788612845779E-02 0.33629096366351E-02 -.37465997176583E-02
  91        8ZZ      -.30114679752392E-04 -.29470823653263E-02 -.43839932683997E-02 0.19462245443470E-02 -.35917331384550E-02
  92        8XY      0.52912849605702E-04 0.50797112055555E-02 0.65762629039124E-02 0.31728942141412E-02 -.33491864285377E-02
[...]
  21         O       -.24009192579399E+00 0.14927823445814E+01
  22         O       -.16809450290801E+00 0.23051724764793E+01
  23         O       -.15776002556943E+00 0.22986609590555E+01
  24         O       -.13041805600471E+00 0.24067241665313E+01
  25         O       -.22724957429132E-01 0.22276827564823E+01
  26         V       0.71383662665680E-01 0.27661679864217E-01
  27         V       0.74026291637177E-01 0.16431909258673E-01
  28         V       0.74158922717639E-01 0.20911170748614E-01
  29         V       0.80259316454138E-01 0.17779966116817E-01
  30         V       0.15513507164050E+00 0.17460346840209E+00
  31         V       0.17005714503170E+00 0.10908220535367E+00
  32         V       0.17225918378315E+00 0.18696220543440E+00
  33         V       0.18206200563398E+00 0.10353485896042E+00
  34         V       0.20458182542174E+00 0.18986631357409E+00
  35         V       0.20923728400589E+00 0.20522856450975E+00
  36         V       0.23319748274228E+00 0.25225023123387E+00
  37         V       0.24822124602192E+00 0.28710654475743E+00
  38         V       0.25203830508859E+00 0.22860679147988E+00
  39         V       0.27025886109598E+00 0.31951705087664E+00
  40         V       0.27931382322213E+00 0.26112842957960E+00
  41         V       0.28487306404092E+00 0.51809933124601E+00
  42         V       0.29278678835209E+00 0.35600722400886E+00
  43         V       0.29623462592725E+00 0.28610832409026E+00
  44         V       0.32856043312982E+00 0.44506600426910E+00
  45         V       0.33943407700625E+00 0.51102681988745E+00
  46         V       0.35970449499907E+00 0.69685688239450E+00
  47         V       0.37650986867032E+00 0.55945190921180E+00
  48         V       0.40479106524212E+00 0.93105227945045E+00
  49         V       0.41475936635405E+00 0.86815448291975E+00
  50         V       0.43130414245966E+00 0.98181168315942E+00
  51         V       0.44205615435574E+00 0.11482628465990E+01
  52         V       0.44448482359479E+00 0.13787801174518E+01
  53         V       0.45446341470386E+00 0.13366768286200E+01
  54         V       0.47865424720074E+00 0.92073599801600E+00
  55         V       0.48996376419384E+00 0.99681135215058E+00
  56         V       0.49431165091168E+00 0.11782510798265E+01
  57         V       0.51330530206870E+00 0.71644760445893E+00
  58         V       0.51471791305210E+00 0.94456837630087E+00
  59         V       0.52642198888176E+00 0.14732542075765E+01
  60         V       0.53108898036495E+00 0.86640198803849E+00
  61         V       0.53872307277173E+00 0.92822022800917E+00
  62         V       0.55333257761988E+00 0.10180441043951E+01
  63         V       0.56935403277550E+00 0.13857101491664E+01
  64         V       0.58866941970058E+00 0.14024086790281E+01
  65         V       0.61931916388380E+00 0.13131156709197E+01
  66         V       0.64001445227412E+00 0.17999968052425E+01
  67         V       0.66573346245804E+00 0.22886517143557E+01
  68         V       0.68892548513165E+00 0.17129077101139E+01
  69         V       0.73716243875313E+00 0.13314876681632E+01
  70         V       0.87582940714103E+00 0.19837564325592E+01
  71         V       0.88983991966194E+00 0.21332643244436E+01
  72         V       0.90338154997843E+00 0.22493116323872E+01
  73         V       0.91395630472907E+00 0.21996089953746E+01
  74         V       0.91921752528832E+00 0.22325212434035E+01
  75         V       0.98045899023690E+00 0.23739331661584E+01
  76         V       0.98988363985991E+00 0.24804269666865E+01
  77         V       0.10577537058773E+01 0.21662553752665E+01
  78         V       0.11124751794635E+01 0.23704087770461E+01
  79         V       0.11456753767684E+01 0.22377432133031E+01
  80         V       0.11501631783626E+01 0.24828045042256E+01
  81         V       0.12195410203969E+01 0.27644969212432E+01
  82         V       0.12287301794328E+01 0.24774043743443E+01
  83         V       0.12625767543171E+01 0.25838994630611E+01
  84         V       0.12825020209867E+01 0.24288066696655E+01
  85         V       0.13117800210101E+01 0.24080113641491E+01
  86         V       0.13234590985407E+01 0.26085518534437E+01
  87         V       0.13595401451472E+01 0.25940286821435E+01
  88         V       0.13886811169466E+01 0.26270663616897E+01
  89         V       0.14297062564870E+01 0.27108436275179E+01
  90         V       0.14830038681875E+01 0.34435071026600E+01
  91         V       0.14990774459197E+01 0.26718389968731E+01
  92         V       0.15253650064798E+01 0.28918519218380E+01
  93         V       0.15486766666597E+01 0.33122921133981E+01
  94         V       0.15739720205806E+01 0.28945479605036E+01
  95         V       0.15817216477279E+01 0.33855564233751E+01
  96         V       0.16058309581076E+01 0.30156406306189E+01
  97         V       0.16325158062520E+01 0.26491235784567E+01
  98         V       0.16602246692877E+01 0.27684052835047E+01
  99         V       0.17066422277563E+01 0.26503679230595E+01
 100         V       0.17696888855506E+01 0.26984941619059E+01
 101         V       0.17816297600188E+01 0.27204631861631E+01
 102         V       0.18645771481229E+01 0.27665360878784E+01
 103         V       0.19311214696906E+01 0.27681504635736E+01
 104         V       0.19806877013365E+01 0.29751655522589E+01
 105         V       0.19987219640630E+01 0.29205082194512E+01
 106         V       0.20565009921129E+01 0.29685021780913E+01
 107         V       0.20897831259782E+01 0.28908780563195E+01
 108         V       0.21230385573879E+01 0.29507409039336E+01
 109         V       0.21373130520606E+01 0.29796330776010E+01
 110         V       0.21533778150283E+01 0.30677603710611E+01
 111         V       0.21694932582218E+01 0.30391327601642E+01
 112         V       0.21788810346806E+01 0.30578534727343E+01
 113         V       0.22309476458567E+01 0.31076854162335E+01
 114         V       0.22510056171062E+01 0.33163623483452E+01
 115         V       0.22724320229411E+01 0.32516098279388E+01
 116         V       0.23038583936485E+01 0.32310337199518E+01
 117         V       0.23153385593760E+01 0.34466600215772E+01
 118         V       0.23680805433150E+01 0.32560262857410E+01
 119         V       0.23974492657615E+01 0.34908204275130E+01
 120         V       0.24597920011007E+01 0.32337705310539E+01
 121         V       0.24831213134282E+01 0.35172769172161E+01
 122         V       0.25182652644684E+01 0.33163112058573E+01
 123         V       0.25399210956121E+01 0.35839814723497E+01
 124         V       0.25587756467038E+01 0.34852403857465E+01
 125         V       0.26039670389469E+01 0.33554211107021E+01
 126         V       0.26414025495084E+01 0.37053665025499E+01
 127         V       0.26895564914973E+01 0.36548778778918E+01
 128         V       0.27092356540587E+01 0.35488535815918E+01
 129         V       0.27462085281017E+01 0.35689212781768E+01
 130         V       0.27927389254940E+01 0.37465929462050E+01
 131         V       0.28082623560651E+01 0.37273624493012E+01
 132         V       0.28876735102250E+01 0.38777138497156E+01
 133         V       0.29411101025151E+01 0.38143989614446E+01
 134         V       0.29526279390430E+01 0.39525838186962E+01
 135         V       0.29835853254802E+01 0.38484410292370E+01
 136         V       0.30155005305222E+01 0.39137162214628E+01
 137         V       0.30845734168085E+01 0.40072859112247E+01
 138         V       0.31041249094421E+01 0.39229371411584E+01
 139         V       0.31830621016771E+01 0.43731186269402E+01
 140         V       0.32221440500258E+01 0.42427516482594E+01
 141         V       0.32887015786893E+01 0.47317477269228E+01
 142         V       0.33059886773229E+01 0.43878471033779E+01
 143         V       0.33385099895096E+01 0.47814390739806E+01
 144         V       0.33742817602741E+01 0.44764257188797E+01
 145         V       0.34839131082526E+01 0.48921037016773E+01
 146         V       0.35417369336703E+01 0.47887327703415E+01
 147         V       0.37306754963158E+01 0.52608549898104E+01
 148         V       0.37698130076530E+01 0.54497317145321E+01
 149         V       0.37804273478314E+01 0.53216853395787E+01
 150         V       0.38606621213710E+01 0.54358542790324E+01
 151         V       0.40000265023582E+01 0.57336516583773E+01
 152         V       0.44947321116102E+01 0.10449188133839E+02
 153         V       0.46314609974726E+01 0.10453488510270E+02
 154         V       0.46750233976236E+01 0.11009719294311E+02
 155         V       0.48577461558137E+01 0.10608522337861E+02
 156         V       0.49389920946164E+01 0.11765321349260E+02
 157         V       0.49573654469306E+01 0.11052807721709E+02
 Orbital energies and kinetic energies (beta):
                                 1                 2
   1         O       -.19053190327691E+02 0.29040789781339E+02
   2         O       -.19034428193018E+02 0.29040063410574E+02
   3         O       -.14376220499346E+02 0.21981439744491E+02
   4         O       -.10161948681563E+02 0.15898627607984E+02
   5         O       -.10161814143149E+02 0.15899709244593E+02
   6         O       -.10141538028636E+02 0.15899368926854E+02
   7         O       -.10213204049766E+01 0.23517494016613E+01
   8         O       -.85746403801829E+00 0.26935678380029E+01
   9         O       -.75317286438824E+00 0.16029606433038E+01
  10         O       -.67904909014729E+00 0.17328979092639E+01
  11         O       -.59054546476791E+00 0.15126082115107E+01
  12         O       -.47370133167852E+00 0.16796853893658E+01
  13         O       -.42124394522809E+00 0.10619610899162E+01
  14         O       -.41168751552568E+00 0.13795704063104E+01
  15         O       -.37506234957025E+00 0.17825135022355E+01
  16         O       -.35749615169495E+00 0.17562747518257E+01
  17         O       -.33464494762648E+00 0.14286623116045E+01
  18         O       -.30802923576054E+00 0.13111895762013E+01
  19         O       -.29185736900795E+00 0.15667837678330E+01
  20         O       -.25741044903667E+00 0.12320861850787E+01
  21         O       -.22163705749855E+00 0.15288174753259E+01
  22         O       -.15088873757871E+00 0.22708764999058E+01
  23         O       -.12446514137227E+00 0.23880970146251E+01
  24         O       -.12179709521795E+00 0.22279432604653E+01
  25         V       0.85837347900203E-01 0.16060409754638E-01
  26         V       0.89035740677407E-01 0.15767123037779E-01
  27         V       0.89703743570857E-01 0.15301461424850E-01
  28         V       0.10359256997600E+00 0.15958053236187E-01
  29         V       0.16910174208295E+00 0.17217126782732E+00
  30         V       0.18538300270106E+00 0.26182931406222E+00
  31         V       0.18765710139472E+00 0.13134498125903E+00
  32         V       0.19710323605801E+00 0.14945867008399E+00
  33         V       0.21653022996306E+00 0.28106088073480E+00
  34         V       0.22126660785323E+00 0.19179593211292E+00
  35         V       0.23608625108071E+00 0.67406800667638E+00
  36         V       0.24160983840167E+00 0.72175044415333E+00
  37         V       0.25653052314883E+00 0.35108544695239E+00
  38         V       0.25974793994463E+00 0.66528398490860E+00
  39         V       0.27696431833061E+00 0.34774047241618E+00
  40         V       0.28786936707665E+00 0.27475709870502E+00
  41         V       0.29331038712867E+00 0.49351388074199E+00
  42         V       0.30317816930859E+00 0.54372857804995E+00
  43         V       0.30486322695189E+00 0.29848929716804E+00
  44         V       0.33439240111636E+00 0.43492235947339E+00
  45         V       0.34845615876554E+00 0.51367669416101E+00
  46         V       0.36443986007223E+00 0.68706527815742E+00
  47         V       0.37990306821404E+00 0.55062563818461E+00
  48         V       0.40945392117490E+00 0.94050326267282E+00
  49         V       0.41838340612168E+00 0.78804339356109E+00
  50         V       0.43474230144144E+00 0.91054074138437E+00
  51         V       0.44640052362405E+00 0.10802826953496E+01
  52         V       0.45021852758072E+00 0.13806849066364E+01
  53         V       0.46132713227407E+00 0.12873984843857E+01
  54         V       0.48234093449922E+00 0.91531278842642E+00
  55         V       0.49440108131963E+00 0.97738733660527E+00
  56         V       0.49823625214904E+00 0.12339217042331E+01
  57         V       0.51417363559719E+00 0.68728629503172E+00
  58         V       0.51838908248246E+00 0.93156115127728E+00
  59         V       0.53111334711218E+00 0.11092990934768E+01
  60         V       0.53628370614131E+00 0.10783044375433E+01
  61         V       0.54253598320202E+00 0.10632860567163E+01
  62         V       0.55522915936522E+00 0.10568271776959E+01
  63         V       0.57586250259973E+00 0.16290312596669E+01
  64         V       0.59112919137783E+00 0.14113257806913E+01
  65         V       0.62203155046763E+00 0.13011427097986E+01
  66         V       0.64581222309594E+00 0.18189363449264E+01
  67         V       0.67275476746423E+00 0.21089549942307E+01
  68         V       0.69470002044111E+00 0.19682904134057E+01
  69         V       0.74135550034819E+00 0.13573748859809E+01
  70         V       0.87760071443220E+00 0.19625174160475E+01
  71         V       0.89152895191541E+00 0.21034225672860E+01
  72         V       0.90660377195832E+00 0.22762772486573E+01
  73         V       0.91497125969527E+00 0.21578821645893E+01
  74         V       0.92138611089723E+00 0.23203317198715E+01
  75         V       0.98220122071582E+00 0.23132574900441E+01
  76         V       0.99231459667337E+00 0.25694275043258E+01
  77         V       0.10584080477285E+01 0.21615633083213E+01
  78         V       0.11134189274221E+01 0.23630624572594E+01
  79         V       0.11472900953274E+01 0.22273124034990E+01
  80         V       0.11573807431933E+01 0.25059507312192E+01
  81         V       0.12298168424581E+01 0.24836769267217E+01
  82         V       0.12409168812078E+01 0.27666036842769E+01
  83         V       0.12672108224390E+01 0.26483164321862E+01
  84         V       0.12897760940136E+01 0.24761074449367E+01
  85         V       0.13139675729291E+01 0.23946376025075E+01
  86         V       0.13261846410736E+01 0.26076425160505E+01
  87         V       0.13612914599501E+01 0.26007535015376E+01
  88         V       0.13912807164498E+01 0.26293146530324E+01
  89         V       0.14326336373543E+01 0.27181499843758E+01
  90         V       0.14976375457415E+01 0.33661868266586E+01
  91         V       0.15026518584908E+01 0.27695063938628E+01
  92         V       0.15315475727660E+01 0.29093640238483E+01
  93         V       0.15598712066967E+01 0.33337252700212E+01
  94         V       0.15794837715608E+01 0.29533606911448E+01
  95         V       0.15869998187056E+01 0.34543306438614E+01
  96         V       0.16136827295582E+01 0.30119156776512E+01
  97         V       0.16403387215567E+01 0.26277844380408E+01
  98         V       0.16633837986244E+01 0.27881143788813E+01
  99         V       0.17148215051789E+01 0.26488691586789E+01
 100         V       0.17755853067819E+01 0.27520055196935E+01
 101         V       0.17900619061110E+01 0.26759247996951E+01
 102         V       0.18704322402493E+01 0.27724018240612E+01
 103         V       0.19339366000539E+01 0.27703143406941E+01
 104         V       0.19834854128708E+01 0.29830948829947E+01
 105         V       0.20017455457842E+01 0.29197461742165E+01
 106         V       0.20614721435868E+01 0.29671589047021E+01
 107         V       0.20981604715738E+01 0.28991845291035E+01
 108         V       0.21317418065887E+01 0.30227919837228E+01
 109         V       0.21429509764779E+01 0.29104463556197E+01
 110         V       0.21572737329167E+01 0.30760569193250E+01
 111         V       0.21749716145298E+01 0.30619431724467E+01
 112         V       0.21828685173733E+01 0.30327021940533E+01
 113         V       0.22338662287113E+01 0.30919981829869E+01
 114         V       0.22598112620507E+01 0.33372715705236E+01
 115         V       0.22757647324237E+01 0.32305834797111E+01
 116         V       0.23066053087520E+01 0.32558339787439E+01
 117         V       0.23222068986427E+01 0.34070360158187E+01
 118         V       0.23737251191013E+01 0.32491921183639E+01
 119         V       0.24039843698282E+01 0.34880098182690E+01
 120         V       0.24638302504356E+01 0.32243036713028E+01
 121         V       0.24890658618209E+01 0.35085430825754E+01
 122         V       0.25225137298779E+01 0.33169537168241E+01
 123         V       0.25440915612253E+01 0.36064092716867E+01
 124         V       0.25639398001041E+01 0.34833768537381E+01
 125         V       0.26060122961862E+01 0.33675838419646E+01
 126         V       0.26497015824561E+01 0.36971186354256E+01
 127         V       0.26922496495932E+01 0.36430829864440E+01
 128         V       0.27120717071005E+01 0.35584924178317E+01
 129         V       0.27516455068784E+01 0.35712796366327E+01
 130         V       0.27991508462011E+01 0.36930433143202E+01
 131         V       0.28130565673045E+01 0.37788058014937E+01
 132         V       0.29026156798592E+01 0.38718103167937E+01
 133         V       0.29449704675442E+01 0.38290259956863E+01
 134         V       0.29611272462594E+01 0.39451237622766E+01
 135         V       0.29869712947535E+01 0.38652518352261E+01
 136         V       0.30185809984265E+01 0.39019919234578E+01
 137         V       0.30874584965311E+01 0.40091448254748E+01
 138         V       0.31047861381824E+01 0.39251038260289E+01
 139         V       0.31873519316884E+01 0.43779708739751E+01
 140         V       0.32275729848694E+01 0.42417726803149E+01
 141         V       0.32967825350022E+01 0.46544433533367E+01
 142         V       0.33091055367366E+01 0.44469569245089E+01
 143         V       0.33449565718365E+01 0.47996708617380E+01
 144         V       0.33748725284698E+01 0.44820631245665E+01
 145         V       0.34894662224463E+01 0.48993777514787E+01
 146         V       0.35466935325262E+01 0.47883562484011E+01
 147         V       0.37313825173418E+01 0.52607840511996E+01
 148         V       0.37699551818958E+01 0.54507580924213E+01
 149         V       0.37815928545933E+01 0.53187372579443E+01
 150         V       0.38610755103995E+01 0.54345006754046E+01
 151         V       0.40007169451134E+01 0.57332927374208E+01
 152         V       0.45091692824922E+01 0.10451614856348E+02
 153         V       0.46361253584939E+01 0.10390983560930E+02
 154         V       0.46806479635944E+01 0.11087101588144E+02
 155         V       0.48605714290048E+01 0.10612745004021E+02
 156         V       0.49446577637296E+01 0.11416457394221E+02
 157         V       0.49607097950332E+01 0.11415618628040E+02
 Total kinetic energy from orbitals= 3.211009757207D+02
 Leave Link  601 at Thu Oct 13 23:36:40 2022, MaxMem= 3276800000 cpu:       1.5
 (Enter /local/g09-source/g09/l9999.exe)

 Test job not archived.
 1\1\GINC-WUX36\SP\UTD-wB97XD-Full\Gen\C3H7N1O2(1-,2)\ISSLERK\13-Oct-20
 22\0\\#p TD(full,nstates=1) wB97XD/GEN 6D Iop(6/7=3) Iop(9/40=14) scf(
 maxcyc=200,conver=8) nosym Guess(Read) Geom=AllCheck\\Comment\\-1,2\C,
 -4.958591314,0.310098853,0.869439572\C,-3.607396994,1.076558765,0.9826
 12044\N,-5.154621254,-0.730290326,1.660212398\H,-5.752480105,1.0095184
 63,0.906991288\H,-4.801235183,-0.138463082,-0.204218355\O,-6.234045992
 ,-0.988638035,2.29394249\O,-4.117812302,-1.545533636,1.562068414\C,-3.
 480739592,1.711305482,2.445165236\H,-2.94029916,0.367790762,0.74724870
 6\H,-3.608026207,1.773129708,0.186569685\H,-3.536082302,0.955652996,3.
 137001089\H,-2.810077656,2.492847187,2.448324471\H,-4.643781631,2.1301
 20215,2.341083478\\Version=EM64L-G09RevA.02\HF=-323.5051645\S2=0.75438
 5\S2-1=0.\S2A=0.750016\RMSD=9.857e-10\PG=C01 [X(C3H7N1O2)]\\@


 THERE IS MORE TO LIFE THAN INCREASING ITS SPEED.

                                       -- GANDHI
 Job cpu time:  0 days  0 hours 12 minutes 46.8 seconds.
 File lengths (MBytes):  RWF=     40 Int=      0 D2E=      0 Chk=      5 Scr=      1
 Normal termination of Gaussian 09 at Thu Oct 13 23:36:40 2022.
