 Entering Gaussian System, Link 0=g09
 Initial command:
 /local/g09-source/g09/l1.exe /scratch/1234596/TRAJ_33/Gau-32085.inp -scrdir=/scratch/1234596/TRAJ_33/
 Entering Link 1 = /local/g09-source/g09/l1.exe PID=     32087.
  
 Copyright (c) 1988,1990,1992,1993,1995,1998,2003,2009, Gaussian, Inc.
                  All Rights Reserved.
  
 This is part of the Gaussian(R) 09 program.  It is based on
 the Gaussian(R) 03 system (copyright 2003, Gaussian, Inc.),
 the Gaussian(R) 98 system (copyright 1998, Gaussian, Inc.),
 the Gaussian(R) 94 system (copyright 1995, Gaussian, Inc.),
 the Gaussian 92(TM) system (copyright 1992, Gaussian, Inc.),
 the Gaussian 90(TM) system (copyright 1990, Gaussian, Inc.),
 the Gaussian 88(TM) system (copyright 1988, Gaussian, Inc.),
 the Gaussian 86(TM) system (copyright 1986, Carnegie Mellon
 University), and the Gaussian 82(TM) system (copyright 1983,
 Carnegie Mellon University). Gaussian is a federally registered
 trademark of Gaussian, Inc.
  
 This software contains proprietary and confidential information,
 including trade secrets, belonging to Gaussian, Inc.
  
 This software is provided under written license and may be
 used, copied, transmitted, or stored only in accord with that
 written license.
  
 The following legend is applicable only to US Government
 contracts under FAR:
  
                    RESTRICTED RIGHTS LEGEND
  
 Use, reproduction and disclosure by the US Government is
 subject to restrictions as set forth in subparagraphs (a)
 and (c) of the Commercial Computer Software - Restricted
 Rights clause in FAR 52.227-19.
  
 Gaussian, Inc.
 340 Quinnipiac St., Bldg. 40, Wallingford CT 06492
  
  
 ---------------------------------------------------------------
 Warning -- This program may not be used in any manner that
 competes with the business of Gaussian, Inc. or will provide
 assistance to any competitor of Gaussian, Inc.  The licensee
 of this program is prohibited from giving any competitor of
 Gaussian, Inc. access to this program.  By using this program,
 the user acknowledges that Gaussian, Inc. is engaged in the
 business of creating and licensing software in the field of
 computational chemistry and represents and warrants to the
 licensee that it is not a competitor of Gaussian, Inc. and that
 it will not use this program in any manner prohibited above.
 ---------------------------------------------------------------
  

 Cite this work as:
 Gaussian 09, Revision A.02,
 M. J. Frisch, G. W. Trucks, H. B. Schlegel, G. E. Scuseria, 
 M. A. Robb, J. R. Cheeseman, G. Scalmani, V. Barone, B. Mennucci, 
 G. A. Petersson, H. Nakatsuji, M. Caricato, X. Li, H. P. Hratchian, 
 A. F. Izmaylov, J. Bloino, G. Zheng, J. L. Sonnenberg, M. Hada, 
 M. Ehara, K. Toyota, R. Fukuda, J. Hasegawa, M. Ishida, T. Nakajima, 
 Y. Honda, O. Kitao, H. Nakai, T. Vreven, J. A. Montgomery, Jr., 
 J. E. Peralta, F. Ogliaro, M. Bearpark, J. J. Heyd, E. Brothers, 
 K. N. Kudin, V. N. Staroverov, R. Kobayashi, J. Normand, 
 K. Raghavachari, A. Rendell, J. C. Burant, S. S. Iyengar, J. Tomasi, 
 M. Cossi, N. Rega, J. M. Millam, M. Klene, J. E. Knox, J. B. Cross, 
 V. Bakken, C. Adamo, J. Jaramillo, R. Gomperts, R. E. Stratmann, 
 O. Yazyev, A. J. Austin, R. Cammi, C. Pomelli, J. W. Ochterski, 
 R. L. Martin, K. Morokuma, V. G. Zakrzewski, G. A. Voth, 
 P. Salvador, J. J. Dannenberg, S. Dapprich, A. D. Daniels, 
 O. Farkas, J. B. Foresman, J. V. Ortiz, J. Cioslowski, 
 and D. J. Fox, Gaussian, Inc., Wallingford CT, 2009.
 
 ******************************************
 Gaussian 09:  EM64L-G09RevA.02 11-Jun-2009
                13-Oct-2022 
 ******************************************
 %Chk=neu.chk
 %Nproc=10
 Will use up to   10 processors via shared memory.
 %Mem=25000Mb
 ----------------------------------------------------------------------
 #p wB97XD/GEN 6D Iop(6/7=3) Iop(9/40=14) scf(maxcyc=200,conver=8) nosy
 m Guess(Read,TCheck) GFInput
 ----------------------------------------------------------------------
 1/38=1/1;
 2/12=2,15=1,17=6,18=5,40=1/2;
 3/5=7,8=2,11=2,16=1,24=10,25=1,30=1,74=-58/1,2,3;
 4/5=102/1;
 5/5=2,6=8,7=200/2;
 6/7=3,8=2,9=2,10=2,28=1/1;
 99/5=1,9=1/99;
 Leave Link    1 at Thu Oct 13 23:36:41 2022, MaxMem= 3276800000 cpu:       0.8
 (Enter /local/g09-source/g09/l101.exe)
 -------
 Comment
 -------
 Symbolic Z-matrix:
 Charge =  0 Multiplicity = 1
 C                    -4.95859   0.3101    0.86944 
 C                    -3.6074    1.07656   0.98261 
 N                    -5.15462  -0.73029   1.66021 
 H                    -5.75248   1.00952   0.90699 
 H                    -4.80124  -0.13846  -0.20422 
 O                    -6.23405  -0.98864   2.29394 
 O                    -4.11781  -1.54553   1.56207 
 C                    -3.48074   1.71131   2.44517 
 H                    -2.9403    0.36779   0.74725 
 H                    -3.60803   1.77313   0.18657 
 H                    -3.53608   0.95565   3.137 
 H                    -2.81008   2.49285   2.44832 
 H                    -4.64378   2.13012   2.34108 
 
 NAtoms=     13 NQM=     13 NQMF=      0 NMic=      0 NMicF=      0 NTot=     13.
                    Isotopes and Nuclear Properties:
 (Nuclear quadrupole moments (NQMom) in fm**2, nuclear magnetic moments (NMagM)
  in nuclear magnetons)

  Atom         1           2           3           4           5           6           7           8           9          10
 IAtWgt=          12          12          14           1           1          16          16          12           1           1
 AtmWgt=  12.0000000  12.0000000  14.0030740   1.0078250   1.0078250  15.9949146  15.9949146  12.0000000   1.0078250   1.0078250
 NucSpn=           0           0           2           1           1           0           0           0           1           1
 AtZEff=   0.0000000   0.0000000   0.0000000   0.0000000   0.0000000   0.0000000   0.0000000   0.0000000   0.0000000   0.0000000
 NQMom=    0.0000000   0.0000000   2.0440000   0.0000000   0.0000000   0.0000000   0.0000000   0.0000000   0.0000000   0.0000000
 NMagM=    0.0000000   0.0000000   0.4037610   2.7928460   2.7928460   0.0000000   0.0000000   0.0000000   2.7928460   2.7928460

  Atom        11          12          13
 IAtWgt=           1           1           1
 AtmWgt=   1.0078250   1.0078250   1.0078250
 NucSpn=           1           1           1
 AtZEff=   0.0000000   0.0000000   0.0000000
 NQMom=    0.0000000   0.0000000   0.0000000
 NMagM=    2.7928460   2.7928460   2.7928460
 Leave Link  101 at Thu Oct 13 23:36:41 2022, MaxMem= 3276800000 cpu:       0.9
 (Enter /local/g09-source/g09/l202.exe)
                          Input orientation:                          
 ---------------------------------------------------------------------
 Center     Atomic      Atomic             Coordinates (Angstroms)
 Number     Number       Type             X           Y           Z
 ---------------------------------------------------------------------
      1          6           0       -4.958591    0.310099    0.869440
      2          6           0       -3.607397    1.076559    0.982612
      3          7           0       -5.154621   -0.730290    1.660212
      4          1           0       -5.752480    1.009518    0.906991
      5          1           0       -4.801235   -0.138463   -0.204218
      6          8           0       -6.234046   -0.988638    2.293942
      7          8           0       -4.117812   -1.545534    1.562068
      8          6           0       -3.480740    1.711305    2.445165
      9          1           0       -2.940299    0.367791    0.747249
     10          1           0       -3.608026    1.773130    0.186570
     11          1           0       -3.536082    0.955653    3.137001
     12          1           0       -2.810078    2.492847    2.448324
     13          1           0       -4.643782    2.130120    2.341083
 ---------------------------------------------------------------------
                    Distance matrix (angstroms):
                    1          2          3          4          5
     1  C    0.000000
     2  C    1.557561   0.000000
     3  N    1.321423   2.473408   0.000000
     4  H    1.058705   2.147462   1.987891   0.000000
     5  H    1.174185   2.076077   1.987773   1.859440   0.000000
     6  O    2.311430   3.589416   1.278090   2.479550   3.002757
     7  O    2.151747   2.733434   1.322583   3.103153   2.359382
     8  C    2.574944   1.599377   3.062584   2.831835   3.490643
     9  H    2.022810   1.001383   2.634864   2.888891   2.150504
    10  H    2.104946   1.057778   3.291002   2.387633   2.287061
    11  H    2.753563   2.158957   2.764594   3.144561   3.736502
    12  H    3.445777   2.188585   4.062834   3.637816   4.233732
    13  H    2.361635   2.007369   2.984374   2.131099   3.413184
                    6          7          8          9         10
     6  O    0.000000
     7  O    2.307427   0.000000
     8  C    3.859179   3.434053   0.000000
     9  H    3.883417   2.389828   2.231598   0.000000
    10  H    4.354809   3.628416   2.263024   1.653843   0.000000
    11  H    3.430747   3.012434   1.026017   2.532085   3.062432
    12  H    4.885502   4.336374   1.029857   2.725157   2.504047
    13  H    3.501116   3.793935   1.240526   2.923691   2.417056
                   11         12         13
    11  H    0.000000
    12  H    1.834209   0.000000
    13  H    1.799960   1.872309   0.000000
 Symmetry turned off by external request.
 Stoichiometry    C3H7NO2
 Framework group  C1[X(C3H7NO2)]
 Deg. of freedom    33
 Full point group                 C1      NOp   1
 Rotational constants (GHZ):      6.2219511      2.4690937      2.2892169
 Leave Link  202 at Thu Oct 13 23:36:41 2022, MaxMem= 3276800000 cpu:       0.0
 (Enter /local/g09-source/g09/l301.exe)
 General basis read from cards:  (6D, 7F)
 Centers:   4  5  9 10 11 12 13
 S 3 1.0
     Exponent=  1.8731136960D+01 Coefficients=  3.3494604000D-02
     Exponent=  2.8253943650D+00 Coefficients=  2.3472695400D-01
     Exponent=  6.4012169200D-01 Coefficients=  8.1375732600D-01
 S 1 1.0
     Exponent=  1.6127775900D-01 Coefficients=  1.0000000000D+00
 P 1 1.0
     Exponent=  1.1000000000D+00 Coefficients=  1.0000000000D+00
 ****
 Centers:   1  2  8
 S 6 1.0
     Exponent=  3.0475248800D+03 Coefficients=  1.8347370000D-03
     Exponent=  4.5736951800D+02 Coefficients=  1.4037323000D-02
     Exponent=  1.0394868500D+02 Coefficients=  6.8842622000D-02
     Exponent=  2.9210155300D+01 Coefficients=  2.3218444300D-01
     Exponent=  9.2866629600D+00 Coefficients=  4.6794134800D-01
     Exponent=  3.1639269600D+00 Coefficients=  3.6231198500D-01
 S 3 1.0
     Exponent=  7.8682723500D+00 Coefficients= -1.1933242000D-01
     Exponent=  1.8812885400D+00 Coefficients= -1.6085415200D-01
     Exponent=  5.4424925800D-01 Coefficients=  1.1434564380D+00
 S 1 1.0
     Exponent=  1.6871447800D-01 Coefficients=  1.0000000000D+00
 S 1 1.0
     Exponent=  4.3800000000D-02 Coefficients=  1.0000000000D+00
 P 3 1.0
     Exponent=  7.8682723500D+00 Coefficients=  6.8999067000D-02
     Exponent=  1.8812885400D+00 Coefficients=  3.1642396100D-01
     Exponent=  5.4424925800D-01 Coefficients=  7.4430829100D-01
 P 1 1.0
     Exponent=  1.6871447800D-01 Coefficients=  1.0000000000D+00
 P 1 1.0
     Exponent=  4.3800000000D-02 Coefficients=  1.0000000000D+00
 D 1 1.0
     Exponent=  8.0000000000D-01 Coefficients=  1.0000000000D+00
 ****
 Centers:   3
 S 6 1.0
     Exponent=  4.1735114600D+03 Coefficients=  1.8347720000D-03
     Exponent=  6.2745791100D+02 Coefficients=  1.3994627000D-02
     Exponent=  1.4290209300D+02 Coefficients=  6.8586552000D-02
     Exponent=  4.0234329300D+01 Coefficients=  2.3224087300D-01
     Exponent=  1.2820212900D+01 Coefficients=  4.6906994800D-01
     Exponent=  4.3904370100D+00 Coefficients=  3.6045519900D-01
 S 3 1.0
     Exponent=  1.1626361860D+01 Coefficients= -1.1496118200D-01
     Exponent=  2.7162798070D+00 Coefficients= -1.6911747900D-01
     Exponent=  7.7221839700D-01 Coefficients=  1.1458519470D+00
 S 1 1.0
     Exponent=  2.1203149700D-01 Coefficients=  1.0000000000D+00
 S 1 1.0
     Exponent=  6.3900000000D-02 Coefficients=  1.0000000000D+00
 S 1 1.0
     Exponent=  1.8257143000D-02 Coefficients=  1.0000000000D+00
 S 1 1.0
     Exponent=  5.2163270000D-03 Coefficients=  1.0000000000D+00
 P 3 1.0
     Exponent=  1.1626361860D+01 Coefficients=  6.7579744000D-02
     Exponent=  2.7162798070D+00 Coefficients=  3.2390729600D-01
     Exponent=  7.7221839700D-01 Coefficients=  7.4089514000D-01
 P 1 1.0
     Exponent=  2.1203149700D-01 Coefficients=  1.0000000000D+00
 P 1 1.0
     Exponent=  6.3900000000D-02 Coefficients=  1.0000000000D+00
 P 1 1.0
     Exponent=  1.8257143000D-02 Coefficients=  1.0000000000D+00
 P 1 1.0
     Exponent=  5.2163270000D-03 Coefficients=  1.0000000000D+00
 D 1 1.0
     Exponent=  8.0000000000D-01 Coefficients=  1.0000000000D+00
 ****
 Centers:   6  7
 S 6 1.0
     Exponent=  5.4846716600D+03 Coefficients=  1.8310740000D-03
     Exponent=  8.2523494600D+02 Coefficients=  1.3950172000D-02
     Exponent=  1.8804695800D+02 Coefficients=  6.8445078000D-02
     Exponent=  5.2964500000D+01 Coefficients=  2.3271433600D-01
     Exponent=  1.6897570400D+01 Coefficients=  4.7019289800D-01
     Exponent=  5.7996353400D+00 Coefficients=  3.5852085300D-01
 S 3 1.0
     Exponent=  1.5539616250D+01 Coefficients= -1.1077755000D-01
     Exponent=  3.5999335860D+00 Coefficients= -1.4802626300D-01
     Exponent=  1.0137617500D+00 Coefficients=  1.1307670150D+00
 S 1 1.0
     Exponent=  2.7000582300D-01 Coefficients=  1.0000000000D+00
 S 1 1.0
     Exponent=  8.4500000000D-02 Coefficients=  1.0000000000D+00
 P 3 1.0
     Exponent=  1.5539616250D+01 Coefficients=  7.0874268000D-02
     Exponent=  3.5999335860D+00 Coefficients=  3.3975283900D-01
     Exponent=  1.0137617500D+00 Coefficients=  7.2715857700D-01
 P 1 1.0
     Exponent=  2.7000582300D-01 Coefficients=  1.0000000000D+00
 P 1 1.0
     Exponent=  8.4500000000D-02 Coefficients=  1.0000000000D+00
 D 1 1.0
     Exponent=  8.0000000000D-01 Coefficients=  1.0000000000D+00
 ****
 Ernie: Thresh=  0.10000D-02 Tol=  0.10000D-05 Strict=F.
 AO basis set in the form of general basis input (Overlap normalization):
      1 0
 S   6 1.00       0.000000000000
      0.3047524880D+04  0.1834737002D-02
      0.4573695180D+03  0.1403732301D-01
      0.1039486850D+03  0.6884262207D-01
      0.2921015530D+02  0.2321844432D+00
      0.9286662960D+01  0.4679413485D+00
      0.3163926960D+01  0.3623119854D+00
 S   3 1.00       0.000000000000
      0.7868272350D+01 -0.1193324200D+00
      0.1881288540D+01 -0.1608541520D+00
      0.5442492580D+00  0.1143456438D+01
 S   1 1.00       0.000000000000
      0.1687144780D+00  0.1000000000D+01
 S   1 1.00       0.000000000000
      0.4380000000D-01  0.1000000000D+01
 P   3 1.00       0.000000000000
      0.7868272350D+01  0.6899906698D-01
      0.1881288540D+01  0.3164239609D+00
      0.5442492580D+00  0.7443082908D+00
 P   1 1.00       0.000000000000
      0.1687144780D+00  0.1000000000D+01
 P   1 1.00       0.000000000000
      0.4380000000D-01  0.1000000000D+01
 D   1 1.00       0.000000000000
      0.8000000000D+00  0.1000000000D+01
 ****
      2 0
 S   6 1.00       0.000000000000
      0.3047524880D+04  0.1834737002D-02
      0.4573695180D+03  0.1403732301D-01
      0.1039486850D+03  0.6884262207D-01
      0.2921015530D+02  0.2321844432D+00
      0.9286662960D+01  0.4679413485D+00
      0.3163926960D+01  0.3623119854D+00
 S   3 1.00       0.000000000000
      0.7868272350D+01 -0.1193324200D+00
      0.1881288540D+01 -0.1608541520D+00
      0.5442492580D+00  0.1143456438D+01
 S   1 1.00       0.000000000000
      0.1687144780D+00  0.1000000000D+01
 S   1 1.00       0.000000000000
      0.4380000000D-01  0.1000000000D+01
 P   3 1.00       0.000000000000
      0.7868272350D+01  0.6899906698D-01
      0.1881288540D+01  0.3164239609D+00
      0.5442492580D+00  0.7443082908D+00
 P   1 1.00       0.000000000000
      0.1687144780D+00  0.1000000000D+01
 P   1 1.00       0.000000000000
      0.4380000000D-01  0.1000000000D+01
 D   1 1.00       0.000000000000
      0.8000000000D+00  0.1000000000D+01
 ****
      3 0
 S   6 1.00       0.000000000000
      0.4173511460D+04  0.1834772000D-02
      0.6274579110D+03  0.1399462700D-01
      0.1429020930D+03  0.6858655201D-01
      0.4023432930D+02  0.2322408730D+00
      0.1282021290D+02  0.4690699480D+00
      0.4390437010D+01  0.3604551990D+00
 S   3 1.00       0.000000000000
      0.1162636186D+02 -0.1149611820D+00
      0.2716279807D+01 -0.1691174791D+00
      0.7722183970D+00  0.1145851947D+01
 S   1 1.00       0.000000000000
      0.2120314970D+00  0.1000000000D+01
 S   1 1.00       0.000000000000
      0.6390000000D-01  0.1000000000D+01
 S   1 1.00       0.000000000000
      0.1825714300D-01  0.1000000000D+01
 S   1 1.00       0.000000000000
      0.5216327000D-02  0.1000000000D+01
 P   3 1.00       0.000000000000
      0.1162636186D+02  0.6757974397D-01
      0.2716279807D+01  0.3239072959D+00
      0.7722183970D+00  0.7408951397D+00
 P   1 1.00       0.000000000000
      0.2120314970D+00  0.1000000000D+01
 P   1 1.00       0.000000000000
      0.6390000000D-01  0.1000000000D+01
 P   1 1.00       0.000000000000
      0.1825714300D-01  0.1000000000D+01
 P   1 1.00       0.000000000000
      0.5216327000D-02  0.1000000000D+01
 D   1 1.00       0.000000000000
      0.8000000000D+00  0.1000000000D+01
 ****
      4 0
 S   3 1.00       0.000000000000
      0.1873113696D+02  0.3349460400D-01
      0.2825394365D+01  0.2347269540D+00
      0.6401216920D+00  0.8137573259D+00
 S   1 1.00       0.000000000000
      0.1612777590D+00  0.1000000000D+01
 P   1 1.00       0.000000000000
      0.1100000000D+01  0.1000000000D+01
 ****
      5 0
 S   3 1.00       0.000000000000
      0.1873113696D+02  0.3349460400D-01
      0.2825394365D+01  0.2347269540D+00
      0.6401216920D+00  0.8137573259D+00
 S   1 1.00       0.000000000000
      0.1612777590D+00  0.1000000000D+01
 P   1 1.00       0.000000000000
      0.1100000000D+01  0.1000000000D+01
 ****
      6 0
 S   6 1.00       0.000000000000
      0.5484671660D+04  0.1831074000D-02
      0.8252349460D+03  0.1395017200D-01
      0.1880469580D+03  0.6844507801D-01
      0.5296450000D+02  0.2327143360D+00
      0.1689757040D+02  0.4701928980D+00
      0.5799635340D+01  0.3585208530D+00
 S   3 1.00       0.000000000000
      0.1553961625D+02 -0.1107775501D+00
      0.3599933586D+01 -0.1480262631D+00
      0.1013761750D+01  0.1130767016D+01
 S   1 1.00       0.000000000000
      0.2700058230D+00  0.1000000000D+01
 S   1 1.00       0.000000000000
      0.8450000000D-01  0.1000000000D+01
 P   3 1.00       0.000000000000
      0.1553961625D+02  0.7087426804D-01
      0.3599933586D+01  0.3397528392D+00
      0.1013761750D+01  0.7271585774D+00
 P   1 1.00       0.000000000000
      0.2700058230D+00  0.1000000000D+01
 P   1 1.00       0.000000000000
      0.8450000000D-01  0.1000000000D+01
 D   1 1.00       0.000000000000
      0.8000000000D+00  0.1000000000D+01
 ****
      7 0
 S   6 1.00       0.000000000000
      0.5484671660D+04  0.1831074000D-02
      0.8252349460D+03  0.1395017200D-01
      0.1880469580D+03  0.6844507801D-01
      0.5296450000D+02  0.2327143360D+00
      0.1689757040D+02  0.4701928980D+00
      0.5799635340D+01  0.3585208530D+00
 S   3 1.00       0.000000000000
      0.1553961625D+02 -0.1107775501D+00
      0.3599933586D+01 -0.1480262631D+00
      0.1013761750D+01  0.1130767016D+01
 S   1 1.00       0.000000000000
      0.2700058230D+00  0.1000000000D+01
 S   1 1.00       0.000000000000
      0.8450000000D-01  0.1000000000D+01
 P   3 1.00       0.000000000000
      0.1553961625D+02  0.7087426804D-01
      0.3599933586D+01  0.3397528392D+00
      0.1013761750D+01  0.7271585774D+00
 P   1 1.00       0.000000000000
      0.2700058230D+00  0.1000000000D+01
 P   1 1.00       0.000000000000
      0.8450000000D-01  0.1000000000D+01
 D   1 1.00       0.000000000000
      0.8000000000D+00  0.1000000000D+01
 ****
      8 0
 S   6 1.00       0.000000000000
      0.3047524880D+04  0.1834737002D-02
      0.4573695180D+03  0.1403732301D-01
      0.1039486850D+03  0.6884262207D-01
      0.2921015530D+02  0.2321844432D+00
      0.9286662960D+01  0.4679413485D+00
      0.3163926960D+01  0.3623119854D+00
 S   3 1.00       0.000000000000
      0.7868272350D+01 -0.1193324200D+00
      0.1881288540D+01 -0.1608541520D+00
      0.5442492580D+00  0.1143456438D+01
 S   1 1.00       0.000000000000
      0.1687144780D+00  0.1000000000D+01
 S   1 1.00       0.000000000000
      0.4380000000D-01  0.1000000000D+01
 P   3 1.00       0.000000000000
      0.7868272350D+01  0.6899906698D-01
      0.1881288540D+01  0.3164239609D+00
      0.5442492580D+00  0.7443082908D+00
 P   1 1.00       0.000000000000
      0.1687144780D+00  0.1000000000D+01
 P   1 1.00       0.000000000000
      0.4380000000D-01  0.1000000000D+01
 D   1 1.00       0.000000000000
      0.8000000000D+00  0.1000000000D+01
 ****
      9 0
 S   3 1.00       0.000000000000
      0.1873113696D+02  0.3349460400D-01
      0.2825394365D+01  0.2347269540D+00
      0.6401216920D+00  0.8137573259D+00
 S   1 1.00       0.000000000000
      0.1612777590D+00  0.1000000000D+01
 P   1 1.00       0.000000000000
      0.1100000000D+01  0.1000000000D+01
 ****
     10 0
 S   3 1.00       0.000000000000
      0.1873113696D+02  0.3349460400D-01
      0.2825394365D+01  0.2347269540D+00
      0.6401216920D+00  0.8137573259D+00
 S   1 1.00       0.000000000000
      0.1612777590D+00  0.1000000000D+01
 P   1 1.00       0.000000000000
      0.1100000000D+01  0.1000000000D+01
 ****
     11 0
 S   3 1.00       0.000000000000
      0.1873113696D+02  0.3349460400D-01
      0.2825394365D+01  0.2347269540D+00
      0.6401216920D+00  0.8137573259D+00
 S   1 1.00       0.000000000000
      0.1612777590D+00  0.1000000000D+01
 P   1 1.00       0.000000000000
      0.1100000000D+01  0.1000000000D+01
 ****
     12 0
 S   3 1.00       0.000000000000
      0.1873113696D+02  0.3349460400D-01
      0.2825394365D+01  0.2347269540D+00
      0.6401216920D+00  0.8137573259D+00
 S   1 1.00       0.000000000000
      0.1612777590D+00  0.1000000000D+01
 P   1 1.00       0.000000000000
      0.1100000000D+01  0.1000000000D+01
 ****
     13 0
 S   3 1.00       0.000000000000
      0.1873113696D+02  0.3349460400D-01
      0.2825394365D+01  0.2347269540D+00
      0.6401216920D+00  0.8137573259D+00
 S   1 1.00       0.000000000000
      0.1612777590D+00  0.1000000000D+01
 P   1 1.00       0.000000000000
      0.1100000000D+01  0.1000000000D+01
 ****

 Integral buffers will be    131072 words long.
 Raffenetti 2 integral format.
 Two-electron integral symmetry is turned off.
   157 basis functions,   249 primitive gaussians,   157 cartesian basis functions
    24 alpha electrons       24 beta electrons
       nuclear repulsion energy       249.8476435090 Hartrees.
 IExCor= 4639 DFT=T Ex+Corr=wB97XD ExCW=0 ScaHFX=  1.000000
 ScaDFX=  1.000000  1.000000  1.000000  1.000000 ScalE2=  1.000000  1.000000
 IRadAn=      0 IRanWt=     -1 IRanGd=            0 ICorTp=0
  HFx wShort=  0.000000 wLong=  0.200000 cFull=  0.222036 cShort=  0.000000 cLong=  0.777964
  DFx wShort=  0.000000 wLong=  0.200000 cFull=  0.000000 cShort=  0.000000 cLong=  1.000000
 NAtoms=   13 NActive=   13 NUniq=   13 SFac= 7.50D-01 NAtFMM=   80 NAOKFM=F Big=F
 R6Disp: Dispersion energy =        -0.0059173684 Hartrees.
 Nuclear repulsion after empirical dispersion term =      249.8417261407 Hartrees.
 Leave Link  301 at Thu Oct 13 23:36:41 2022, MaxMem= 3276800000 cpu:       0.5
 (Enter /local/g09-source/g09/l302.exe)
 NPDir=0 NMtPBC=     1 NCelOv=     1 NCel=       1 NClECP=     1 NCelD=      1
         NCelK=      1 NCelE2=     1 NClLst=     1 CellRange=     0.0.
 One-electron integrals computed using PRISM.
 NBasis=   157 RedAO= T  NBF=   157
 NBsUse=   157 1.00D-06 NBFU=   157
 Precomputing XC quadrature grid using
 IXCGrd= 2 IRadAn=           0 IRanWt=          -1 IRanGd=           0 AccXCQ= 1.00D-10.
 NRdTot=     881 NPtTot=      113336 NUsed=      119685 NTot=      119717
 NSgBfM=   157   157   157   157   157 NAtAll=    13    13.
 Leave Link  302 at Thu Oct 13 23:36:41 2022, MaxMem= 3276800000 cpu:       2.3
 (Enter /local/g09-source/g09/l303.exe)
 DipDrv:  MaxL=1.
 Leave Link  303 at Thu Oct 13 23:36:41 2022, MaxMem= 3276800000 cpu:       0.4
 (Enter /local/g09-source/g09/l401.exe)
 Initial guess read from the checkpoint file:  neu.chk
 B after Tr=     0.000646    0.001702    0.002172
         Rot=    1.000000    0.000003    0.000111   -0.000103 Ang=   0.02 deg.
 Guess basis will be translated and rotated to current coordinates.
 Leave Link  401 at Thu Oct 13 23:36:41 2022, MaxMem= 3276800000 cpu:       1.5
 (Enter /local/g09-source/g09/l502.exe)
 Closed shell SCF:
 Requested convergence on RMS density matrix=1.00D-08 within 200 cycles.
 Requested convergence on MAX density matrix=1.00D-06.
 Requested convergence on             energy=1.00D-06.
 No special actions if energy rises.
 Using DIIS extrapolation, IDIIS=  1040.
 Two-electron integral symmetry not used.
       119555 words used for storage of precomputed grid.
 IEnd=      238162 IEndB=      238162 NGot=  3276800000 MDV=  3276627045
 LenX=  3276627045 LenY=  3276601955
 Fock matrices will be formed incrementally for  20 cycles.

 Cycle   1  Pass 1  IDiag  1:
 FoFJK:  IHMeth= 1 ICntrl=     0 DoSepK=T KAlg= 1 I1Cent= 0 FoldK=F
 FoFCou: FMM=F IPFlag=           0 FMFlag=      100000 FMFlg1=           0
         NFxFlg=           0 DoJE=T BraDBF=F KetDBF=F FulRan=T
         Omega=  0.000000  0.000000  1.000000  0.000000  0.000000 ICntrl=     500 IOpCl=  0
         NMat0=    1 NMatS0=    1 NMatT0=    0 NMatD0=    1 NMtDS0=    0 NMtDT0=    0
         I1Cent=           0 NGrid=           0.
 Symmetry not used in FoFCou.
 E= -323.470695001097    
 DIIS: error= 3.65D-04 at cycle   1 NSaved=   1.
 NSaved= 1 IEnMin= 1 EnMin= -323.470695001097     IErMin= 1 ErrMin= 3.65D-04
 ErrMax= 3.65D-04 EMaxC= 1.00D-01 BMatC= 7.14D-05 BMatP= 7.14D-05
 IDIUse=3 WtCom= 9.96D-01 WtEn= 3.65D-03
 Coeff-Com:  0.100D+01
 Coeff-En:   0.100D+01
 Coeff:      0.100D+01
 Gap=     0.338 Goal=   None    Shift=    0.000
 RMSDP=1.22D-04 MaxDP=2.41D-03              OVMax= 2.52D-03

 Cycle   2  Pass 1  IDiag  1:
 RMSU=  8.62D-05    CP:  1.00D+00
 FoFJK:  IHMeth= 1 ICntrl=     0 DoSepK=T KAlg= 1 I1Cent= 0 FoldK=F
 E= -323.470797301158     Delta-E=       -0.000102300061 Rises=F Damp=F
 DIIS: error= 1.71D-04 at cycle   2 NSaved=   2.
 NSaved= 2 IEnMin= 2 EnMin= -323.470797301158     IErMin= 2 ErrMin= 1.71D-04
 ErrMax= 1.71D-04 EMaxC= 1.00D-01 BMatC= 8.33D-06 BMatP= 7.14D-05
 IDIUse=3 WtCom= 9.98D-01 WtEn= 1.71D-03
 Coeff-Com:  0.750D-01 0.925D+00
 Coeff-En:   0.000D+00 0.100D+01
 Coeff:      0.749D-01 0.925D+00
 Gap=     0.338 Goal=   None    Shift=    0.000
 RMSDP=3.35D-05 MaxDP=8.88D-04 DE=-1.02D-04 OVMax= 1.26D-03

 Cycle   3  Pass 1  IDiag  1:
 RMSU=  2.33D-05    CP:  1.00D+00  1.05D+00
 FoFJK:  IHMeth= 1 ICntrl=     0 DoSepK=T KAlg= 1 I1Cent= 0 FoldK=F
 E= -323.470803838873     Delta-E=       -0.000006537715 Rises=F Damp=F
 DIIS: error= 1.16D-04 at cycle   3 NSaved=   3.
 NSaved= 3 IEnMin= 3 EnMin= -323.470803838873     IErMin= 3 ErrMin= 1.16D-04
 ErrMax= 1.16D-04 EMaxC= 1.00D-01 BMatC= 4.22D-06 BMatP= 8.33D-06
 IDIUse=3 WtCom= 9.99D-01 WtEn= 1.16D-03
 Coeff-Com: -0.668D-01 0.414D+00 0.653D+00
 Coeff-En:   0.000D+00 0.440D-01 0.956D+00
 Coeff:     -0.667D-01 0.413D+00 0.653D+00
 Gap=     0.337 Goal=   None    Shift=    0.000
 RMSDP=1.76D-05 MaxDP=3.97D-04 DE=-6.54D-06 OVMax= 9.13D-04

 Cycle   4  Pass 1  IDiag  1:
 RMSU=  1.11D-05    CP:  1.00D+00  1.09D+00  8.28D-01
 FoFJK:  IHMeth= 1 ICntrl=     0 DoSepK=T KAlg= 1 I1Cent= 0 FoldK=F
 E= -323.470806912568     Delta-E=       -0.000003073695 Rises=F Damp=F
 DIIS: error= 1.04D-04 at cycle   4 NSaved=   4.
 NSaved= 4 IEnMin= 4 EnMin= -323.470806912568     IErMin= 4 ErrMin= 1.04D-04
 ErrMax= 1.04D-04 EMaxC= 1.00D-01 BMatC= 1.23D-06 BMatP= 4.22D-06
 IDIUse=3 WtCom= 9.99D-01 WtEn= 1.04D-03
 Coeff-Com: -0.468D-01 0.198D+00 0.416D+00 0.432D+00
 Coeff-En:   0.000D+00 0.000D+00 0.717D-01 0.928D+00
 Coeff:     -0.467D-01 0.198D+00 0.416D+00 0.433D+00
 Gap=     0.337 Goal=   None    Shift=    0.000
 RMSDP=7.24D-06 MaxDP=2.00D-04 DE=-3.07D-06 OVMax= 4.66D-04

 Cycle   5  Pass 1  IDiag  1:
 RMSU=  4.13D-06    CP:  1.00D+00  1.09D+00  9.14D-01  7.97D-01
 FoFJK:  IHMeth= 1 ICntrl=     0 DoSepK=T KAlg= 1 I1Cent= 0 FoldK=F
 E= -323.470807833816     Delta-E=       -0.000000921248 Rises=F Damp=F
 DIIS: error= 2.07D-05 at cycle   5 NSaved=   5.
 NSaved= 5 IEnMin= 5 EnMin= -323.470807833816     IErMin= 5 ErrMin= 2.07D-05
 ErrMax= 2.07D-05 EMaxC= 1.00D-01 BMatC= 6.09D-08 BMatP= 1.23D-06
 IDIUse=1 WtCom= 1.00D+00 WtEn= 0.00D+00
 Coeff-Com: -0.328D-03-0.381D-01-0.165D-01 0.170D+00 0.885D+00
 Coeff:     -0.328D-03-0.381D-01-0.165D-01 0.170D+00 0.885D+00
 Gap=     0.337 Goal=   None    Shift=    0.000
 RMSDP=3.01D-06 MaxDP=5.88D-05 DE=-9.21D-07 OVMax= 1.16D-04

 Cycle   6  Pass 1  IDiag  1:
 RMSU=  1.05D-06    CP:  1.00D+00  1.09D+00  9.53D-01  9.42D-01  1.03D+00
 FoFJK:  IHMeth= 1 ICntrl=     0 DoSepK=T KAlg= 1 I1Cent= 0 FoldK=F
 E= -323.470807908938     Delta-E=       -0.000000075122 Rises=F Damp=F
 DIIS: error= 1.85D-06 at cycle   6 NSaved=   6.
 NSaved= 6 IEnMin= 6 EnMin= -323.470807908938     IErMin= 6 ErrMin= 1.85D-06
 ErrMax= 1.85D-06 EMaxC= 1.00D-01 BMatC= 1.86D-09 BMatP= 6.09D-08
 IDIUse=1 WtCom= 1.00D+00 WtEn= 0.00D+00
 Coeff-Com:  0.250D-02-0.187D-01-0.258D-01 0.473D-02 0.152D+00 0.885D+00
 Coeff:      0.250D-02-0.187D-01-0.258D-01 0.473D-02 0.152D+00 0.885D+00
 Gap=     0.337 Goal=   None    Shift=    0.000
 RMSDP=1.02D-06 MaxDP=2.25D-05 DE=-7.51D-08 OVMax= 2.83D-05

 Cycle   7  Pass 1  IDiag  1:
 RMSU=  5.27D-07    CP:  1.00D+00  1.09D+00  9.61D-01  9.66D-01  1.10D+00
                    CP:  1.24D+00
 FoFJK:  IHMeth= 1 ICntrl=     0 DoSepK=T KAlg= 1 I1Cent= 0 FoldK=F
 E= -323.470807912746     Delta-E=       -0.000000003808 Rises=F Damp=F
 DIIS: error= 1.60D-06 at cycle   7 NSaved=   7.
 NSaved= 7 IEnMin= 7 EnMin= -323.470807912746     IErMin= 7 ErrMin= 1.60D-06
 ErrMax= 1.60D-06 EMaxC= 1.00D-01 BMatC= 6.39D-10 BMatP= 1.86D-09
 IDIUse=1 WtCom= 1.00D+00 WtEn= 0.00D+00
 Coeff-Com:  0.125D-02-0.487D-02-0.100D-01-0.150D-01-0.187D-01 0.402D+00
 Coeff-Com:  0.645D+00
 Coeff:      0.125D-02-0.487D-02-0.100D-01-0.150D-01-0.187D-01 0.402D+00
 Coeff:      0.645D+00
 Gap=     0.337 Goal=   None    Shift=    0.000
 RMSDP=3.24D-07 MaxDP=7.98D-06 DE=-3.81D-09 OVMax= 1.35D-05

 Cycle   8  Pass 1  IDiag  1:
 RMSU=  1.60D-07    CP:  1.00D+00  1.09D+00  9.62D-01  9.70D-01  1.12D+00
                    CP:  1.36D+00  1.12D+00
 FoFJK:  IHMeth= 1 ICntrl=     0 DoSepK=T KAlg= 1 I1Cent= 0 FoldK=F
 E= -323.470807913691     Delta-E=       -0.000000000945 Rises=F Damp=F
 DIIS: error= 5.99D-07 at cycle   8 NSaved=   8.
 NSaved= 8 IEnMin= 8 EnMin= -323.470807913691     IErMin= 8 ErrMin= 5.99D-07
 ErrMax= 5.99D-07 EMaxC= 1.00D-01 BMatC= 1.50D-10 BMatP= 6.39D-10
 IDIUse=1 WtCom= 1.00D+00 WtEn= 0.00D+00
 Coeff-Com:  0.170D-03 0.102D-02-0.342D-03-0.856D-02-0.359D-01 0.327D-01
 Coeff-Com:  0.323D+00 0.688D+00
 Coeff:      0.170D-03 0.102D-02-0.342D-03-0.856D-02-0.359D-01 0.327D-01
 Coeff:      0.323D+00 0.688D+00
 Gap=     0.337 Goal=   None    Shift=    0.000
 RMSDP=1.55D-07 MaxDP=3.22D-06 DE=-9.45D-10 OVMax= 1.04D-05

 Cycle   9  Pass 1  IDiag  1:
 RMSU=  6.92D-08    CP:  1.00D+00  1.09D+00  9.62D-01  9.71D-01  1.12D+00
                    CP:  1.41D+00  1.24D+00  1.00D+00
 FoFJK:  IHMeth= 1 ICntrl=     0 DoSepK=T KAlg= 1 I1Cent= 0 FoldK=F
 E= -323.470807913995     Delta-E=       -0.000000000304 Rises=F Damp=F
 DIIS: error= 3.59D-07 at cycle   9 NSaved=   9.
 NSaved= 9 IEnMin= 9 EnMin= -323.470807913995     IErMin= 9 ErrMin= 3.59D-07
 ErrMax= 3.59D-07 EMaxC= 1.00D-01 BMatC= 2.38D-11 BMatP= 1.50D-10
 IDIUse=1 WtCom= 1.00D+00 WtEn= 0.00D+00
 Coeff-Com: -0.281D-03 0.169D-02 0.252D-02 0.672D-03-0.700D-02-0.105D+00
 Coeff-Com: -0.478D-01 0.233D+00 0.922D+00
 Coeff:     -0.281D-03 0.169D-02 0.252D-02 0.672D-03-0.700D-02-0.105D+00
 Coeff:     -0.478D-01 0.233D+00 0.922D+00
 Gap=     0.337 Goal=   None    Shift=    0.000
 RMSDP=1.19D-07 MaxDP=2.95D-06 DE=-3.04D-10 OVMax= 1.01D-05

 Cycle  10  Pass 1  IDiag  1:
 RMSU=  3.97D-08    CP:  1.00D+00  1.09D+00  9.62D-01  9.70D-01  1.12D+00
                    CP:  1.44D+00  1.33D+00  1.13D+00  1.61D+00
 FoFJK:  IHMeth= 1 ICntrl=     0 DoSepK=T KAlg= 1 I1Cent= 0 FoldK=F
 E= -323.470807914125     Delta-E=       -0.000000000130 Rises=F Damp=F
 DIIS: error= 1.59D-07 at cycle  10 NSaved=  10.
 NSaved=10 IEnMin=10 EnMin= -323.470807914125     IErMin=10 ErrMin= 1.59D-07
 ErrMax= 1.59D-07 EMaxC= 1.00D-01 BMatC= 3.82D-12 BMatP= 2.38D-11
 IDIUse=1 WtCom= 1.00D+00 WtEn= 0.00D+00
 Coeff-Com: -0.401D-04-0.237D-03 0.389D-04 0.193D-02 0.986D-02-0.786D-02
 Coeff-Com: -0.803D-01-0.171D+00 0.196D-01 0.123D+01
 Coeff:     -0.401D-04-0.237D-03 0.389D-04 0.193D-02 0.986D-02-0.786D-02
 Coeff:     -0.803D-01-0.171D+00 0.196D-01 0.123D+01
 Gap=     0.337 Goal=   None    Shift=    0.000
 RMSDP=7.02D-08 MaxDP=2.01D-06 DE=-1.30D-10 OVMax= 7.37D-06

 Cycle  11  Pass 1  IDiag  1:
 RMSU=  1.72D-08    CP:  1.00D+00  1.09D+00  9.62D-01  9.70D-01  1.12D+00
                    CP:  1.44D+00  1.36D+00  1.21D+00  2.14D+00  1.51D+00
 FoFJK:  IHMeth= 1 ICntrl=     0 DoSepK=T KAlg= 1 I1Cent= 0 FoldK=F
 E= -323.470807914159     Delta-E=       -0.000000000034 Rises=F Damp=F
 DIIS: error= 6.43D-08 at cycle  11 NSaved=  11.
 NSaved=11 IEnMin=11 EnMin= -323.470807914159     IErMin=11 ErrMin= 6.43D-08
 ErrMax= 6.43D-08 EMaxC= 1.00D-01 BMatC= 4.25D-13 BMatP= 3.82D-12
 IDIUse=1 WtCom= 1.00D+00 WtEn= 0.00D+00
 Coeff-Com:  0.375D-04-0.231D-03-0.326D-03-0.668D-04 0.611D-03 0.158D-01
 Coeff-Com:  0.282D-02-0.269D-01-0.130D+00-0.257D-01 0.116D+01
 Coeff:      0.375D-04-0.231D-03-0.326D-03-0.668D-04 0.611D-03 0.158D-01
 Coeff:      0.282D-02-0.269D-01-0.130D+00-0.257D-01 0.116D+01
 Gap=     0.337 Goal=   None    Shift=    0.000
 RMSDP=2.70D-08 MaxDP=6.58D-07 DE=-3.40D-11 OVMax= 2.67D-06

 Cycle  12  Pass 1  IDiag  1:
 RMSU=  5.27D-09    CP:  1.00D+00  1.09D+00  9.62D-01  9.70D-01  1.12D+00
                    CP:  1.44D+00  1.35D+00  1.22D+00  2.32D+00  1.75D+00
                    CP:  1.50D+00
 FoFJK:  IHMeth= 1 ICntrl=     0 DoSepK=T KAlg= 1 I1Cent= 0 FoldK=F
 E= -323.470807914164     Delta-E=       -0.000000000005 Rises=F Damp=F
 DIIS: error= 1.74D-08 at cycle  12 NSaved=  12.
 NSaved=12 IEnMin=12 EnMin= -323.470807914164     IErMin=12 ErrMin= 1.74D-08
 ErrMax= 1.74D-08 EMaxC= 1.00D-01 BMatC= 6.41D-14 BMatP= 4.25D-13
 IDIUse=1 WtCom= 1.00D+00 WtEn= 0.00D+00
 Coeff-Com:  0.101D-04-0.606D-06-0.403D-04-0.225D-03-0.128D-02 0.380D-02
 Coeff-Com:  0.884D-02 0.198D-01-0.224D-01-0.158D+00 0.175D+00 0.975D+00
 Coeff:      0.101D-04-0.606D-06-0.403D-04-0.225D-03-0.128D-02 0.380D-02
 Coeff:      0.884D-02 0.198D-01-0.224D-01-0.158D+00 0.175D+00 0.975D+00
 Gap=     0.337 Goal=   None    Shift=    0.000
 RMSDP=7.40D-09 MaxDP=1.48D-07 DE=-5.23D-12 OVMax= 7.00D-07

 SCF Done:  E(RwB97XD) =  -323.470807914     A.U. after   12 cycles
             Convg  =    0.7401D-08             -V/T =  2.0087
 KE= 3.206924931354D+02 PE=-1.254770870985D+03 EE= 3.607658437952D+02
 Leave Link  502 at Thu Oct 13 23:37:05 2022, MaxMem= 3276800000 cpu:     238.9
 (Enter /local/g09-source/g09/l601.exe)
 Copying SCF densities to generalized density rwf, IOpCl= 0 IROHF=0.

 **********************************************************************

            Population analysis using the SCF density.

 **********************************************************************

 Alpha  occ. eigenvalues --  -19.34238 -19.31723 -14.70525 -10.37150 -10.32429
 Alpha  occ. eigenvalues --  -10.31805  -1.30902  -1.13806  -0.98196  -0.87847
 Alpha  occ. eigenvalues --   -0.77486  -0.69663  -0.64850  -0.64789  -0.61219
 Alpha  occ. eigenvalues --   -0.57092  -0.54429  -0.49970  -0.48918  -0.43560
 Alpha  occ. eigenvalues --   -0.42745  -0.41082  -0.39872  -0.38534
 Alpha virt. eigenvalues --   -0.04789   0.00786   0.01380   0.01421   0.01685
 Alpha virt. eigenvalues --    0.04815   0.06384   0.06596   0.07145   0.09732
 Alpha virt. eigenvalues --    0.09958   0.10706   0.11969   0.13064   0.14183
 Alpha virt. eigenvalues --    0.14764   0.15077   0.15977   0.17060   0.18282
 Alpha virt. eigenvalues --    0.19970   0.20587   0.22378   0.23907   0.24565
 Alpha virt. eigenvalues --    0.25832   0.26233   0.26407   0.28106   0.31033
 Alpha virt. eigenvalues --    0.32134   0.32652   0.33804   0.34401   0.35459
 Alpha virt. eigenvalues --    0.36896   0.37356   0.38749   0.39645   0.41391
 Alpha virt. eigenvalues --    0.42922   0.44297   0.47220   0.49899   0.55526
 Alpha virt. eigenvalues --    0.70066   0.71833   0.73244   0.75245   0.75842
 Alpha virt. eigenvalues --    0.78982   0.81280   0.86475   0.92810   0.94294
 Alpha virt. eigenvalues --    0.97929   0.99971   1.05894   1.07122   1.08856
 Alpha virt. eigenvalues --    1.13177   1.14492   1.18759   1.20222   1.23300
 Alpha virt. eigenvalues --    1.25720   1.29575   1.31947   1.32662   1.34795
 Alpha virt. eigenvalues --    1.35336   1.38809   1.40899   1.45841   1.49278
 Alpha virt. eigenvalues --    1.56117   1.56870   1.66224   1.73801   1.77880
 Alpha virt. eigenvalues --    1.80113   1.82800   1.85599   1.88042   1.92548
 Alpha virt. eigenvalues --    1.93338   1.95736   1.99756   2.01479   2.04421
 Alpha virt. eigenvalues --    2.06301   2.07761   2.13820   2.15087   2.17516
 Alpha virt. eigenvalues --    2.25950   2.28785   2.33524   2.34812   2.35502
 Alpha virt. eigenvalues --    2.42403   2.43925   2.49386   2.51943   2.54167
 Alpha virt. eigenvalues --    2.57497   2.63212   2.64847   2.72908   2.75979
 Alpha virt. eigenvalues --    2.79936   2.82915   2.90848   2.94197   2.97240
 Alpha virt. eigenvalues --    3.01108   3.04409   3.07848   3.12725   3.21570
 Alpha virt. eigenvalues --    3.24474   3.32954   3.55770   3.58046   3.61992
 Alpha virt. eigenvalues --    3.69352   3.82564   4.24164   4.41569   4.47527
 Alpha virt. eigenvalues --    4.66136   4.70665   4.75883
     Molecular Orbital Coefficients:
                           1         2         3         4         5
                           O         O         O         O         O
     Eigenvalues --  -.19342378479974E+02 -.19317232941417E+02 -.14705250612958E+02 -.10371502835044E+02 -.10324291988873E+02
   1 1   C  1S       -.13323556747107E-05 -.11735518353238E-04 0.21035417841937E-04 0.99345573822888E+00 -.20327462152203E-02
   2        2S       0.45982191774831E-04 0.16062117006996E-04 0.83207479643563E-04 0.48921328620407E-01 -.30763484207989E-03
   3        3S       0.14770133245852E-03 0.56581237165691E-03 0.89837727752194E-03 -.23428345246745E-01 0.48584147972704E-02
   4        4S       -.54911537266331E-03 0.16385789875768E-02 0.61645397573820E-03 -.20395244793312E-01 0.84312398159027E-03
   5        5PX      0.17118036174138E-04 -.22808895044943E-06 -.77423544283933E-04 -.58615859335852E-04 -.62454357610961E-05
   6        5PY      -.50475705461122E-05 0.75574221118977E-04 -.23630598942190E-03 -.12507864456964E-02 0.52588819891847E-04
   7        5PZ      -.11275632214287E-04 -.20154617499444E-04 0.18034161705738E-03 0.87595299336946E-03 0.17272287241949E-04
   8        6PX      -.15857908173735E-03 0.62121764595522E-04 0.87365485421608E-04 -.13584157516460E-02 0.25622962665849E-02
   9        6PY      -.52336917576643E-04 -.46173455861910E-03 -.28775399819514E-03 0.94881805113961E-03 0.23893727362330E-02
  10        6PZ      0.17915356039533E-03 0.49637335146352E-04 0.14408474778356E-03 -.16312692913003E-02 -.39778781141035E-04
  11        7PX      0.14375214897077E-02 -.11209373207845E-02 0.79227926149426E-04 -.11347834647782E-02 0.51625188330703E-04
  12        7PY      0.43787592807567E-05 -.46658794068765E-03 0.12703292760332E-03 0.17236893267086E-02 -.69888431017210E-04
  13        7PZ      -.39886953645945E-03 0.14541221259098E-02 0.66398460199534E-04 -.25753187536524E-02 0.37385624149502E-03
  14        8XX      -.60623681597091E-04 -.62278433219694E-04 -.35487648152884E-05 -.78708080356087E-02 -.31124125715655E-03
  15        8YY      0.28028344157630E-04 -.13194208278159E-03 0.10802247061703E-04 -.74015913764758E-02 -.21696478294565E-03
  16        8ZZ      -.42709073202741E-04 -.24920550783591E-04 0.88973045752782E-05 -.76637176371480E-02 -.12172683868051E-03
  17        8XY      -.69051448215290E-04 0.75912407014528E-04 -.20471376520550E-06 -.14716060186380E-03 -.10719229974707E-03
  18        8XZ      0.66179320777245E-04 -.39417309145249E-04 -.19732712690323E-04 -.83361482387325E-04 -.32148369148646E-05
  19        8YZ      -.92157692770710E-05 0.23272198809253E-04 -.10645886925128E-04 -.28700812584678E-03 0.21823435902914E-04
  20 2   C  1S       -.68210105412581E-05 0.20494501522783E-04 0.29586957379168E-05 0.17897426530685E-02 0.99342667044732E+00
  21        2S       -.31614193984830E-04 0.68455366305982E-04 0.63923371085741E-04 -.19687900167817E-03 0.48382746478646E-01
  22        3S       0.34996586978661E-03 -.56024171764547E-03 -.17696073923756E-03 0.49259475278175E-02 -.23908086592875E-01
  23        4S       0.32903109903595E-02 0.15501287195129E-02 -.46500872192378E-03 0.10461652623434E-01 -.39969995815903E-02
  24        5PX      -.11749445962959E-05 0.75855276743866E-05 0.28750353652262E-04 -.54309260222966E-04 -.36928260562903E-03
  25        5PY      0.65899475045717E-05 -.29002467805493E-04 0.19078823015395E-04 -.61652719638295E-04 -.23954010779127E-03
  26        5PZ      -.14516099266176E-06 -.19444303765776E-04 0.12554630220705E-05 -.44756037637794E-05 -.24338582952182E-03
  27        6PX      -.10328668705508E-03 0.38104556167955E-04 0.86930129306493E-04 -.20821175839906E-02 0.20178304086481E-02
  28        6PY      -.16132665956191E-03 0.12468358160666E-03 0.19273056247817E-03 -.13298323094932E-02 0.14053419083939E-02
  29        6PZ      -.12308814492806E-03 0.12445189407382E-03 -.19200262632031E-04 -.83602988854377E-04 -.56929091827655E-03
  30        7PX      -.63607466098347E-03 -.30621578663485E-03 0.77221523569965E-04 -.13066076761194E-02 0.10526986709669E-03
  31        7PY      -.30061706627812E-03 -.40727403695535E-03 -.35722592401649E-04 -.76161552741831E-03 0.24035827967966E-03
  32        7PZ      0.12034943435416E-02 -.26435708522902E-03 -.58239723627093E-04 0.13404910393696E-02 -.17548173339956E-03
  33        8XX      0.47482934931757E-05 0.33645966678484E-04 -.22211635705215E-04 -.33447098689907E-03 -.78164285831069E-02
  34        8YY      -.15281708454328E-04 0.39079966324752E-04 -.47360826832584E-04 -.16408362796926E-03 -.75695373044788E-02
  35        8ZZ      -.84619101706686E-05 0.47123088432230E-04 -.66766985105877E-06 -.16935333849678E-03 -.76860989917200E-02
  36        8XY      0.56036081127972E-05 -.94153111599460E-05 -.45400879165141E-04 -.11907362667610E-04 -.25710931290359E-03
  37        8XZ      0.15453443632754E-04 0.49285695554148E-05 0.19615881501724E-04 -.76522362679933E-04 -.89925982891768E-04
  38        8YZ      0.77583417778661E-05 -.18579846027531E-06 0.12422970232707E-04 -.44719078295556E-04 -.17626405609419E-03
  39 3   N  1S       -.31912713188135E-04 -.19111535223310E-04 0.99305760963113E+00 -.18487398717822E-03 -.35657012468809E-04
  40        2S       0.21669690695934E-03 0.20670204724568E-03 0.33400530611909E-01 0.91732675960623E-04 -.15996633899209E-03
  41        3S       0.44944814825213E-03 -.13255335727029E-03 0.21668668463104E-02 0.16310031244425E-02 -.29089423500216E-03
  42        4S       0.76841682322253E-02 0.43165942958377E-02 0.30341050579421E-03 0.20087051641082E-01 -.74016893287778E-03
  43        5S       0.21184617294484E-03 -.12363156702272E-03 -.71279810964930E-04 0.20957095753627E-02 0.38658292114484E-03
  44        6S       -.14816060560664E-04 0.12537455557668E-04 0.28188131412359E-05 -.31222220797101E-03 -.37554230607369E-04
  45        7PX      -.25668805866973E-03 0.25908705770138E-03 -.11298252814211E-03 -.23881231431527E-04 -.72859767306187E-04
  46        7PY      -.60402812044015E-04 -.18345283482802E-03 -.80542222571690E-04 -.14973960757970E-03 -.57333825975668E-04
  47        7PZ      0.15013971260369E-03 -.25037151810445E-04 0.13452500654231E-04 0.15315714790023E-03 0.47372518568041E-04
  48        8PX      0.11815793524331E-03 -.87726666822128E-04 -.18272318773674E-03 -.93249232506908E-03 0.15479409098664E-02
  49        8PY      -.28076457135500E-04 -.20262860641589E-03 -.22495421778661E-03 0.13776687455882E-02 0.35410378376204E-03
  50        8PZ      -.38264366232205E-04 0.12727319998188E-03 0.32030243206696E-03 -.68322946779054E-04 -.12555689965886E-02
  51        9PX      -.86760017458743E-02 0.70698875682048E-02 0.40166622087985E-03 0.29428801441790E-03 0.32310467632415E-02
  52        9PY      -.14780454944487E-03 -.30109464534842E-02 -.14618057838802E-04 0.59621987347825E-02 0.19836596805318E-02
  53        9PZ      0.42688489233435E-02 -.14425544036162E-02 -.20966366376146E-03 -.29143186833827E-02 -.29100195083776E-02
  54       10PX      0.55008199622251E-04 0.18445460306149E-04 -.41729044811611E-04 -.29362226826339E-04 0.19280157559006E-04
  55       10PY      0.22926826884840E-03 0.73104280066598E-04 -.36924961770579E-04 0.39087205441109E-03 -.39343247784038E-04
  56       10PZ      -.63657528657752E-04 0.48927245977972E-04 0.24433799772665E-04 -.26204396210029E-03 0.27475671542518E-04
  57       11PX      -.97884490285677E-05 -.67313301775263E-05 0.10078220885601E-04 0.12854946962912E-04 0.21332828105468E-04
  58       11PY      -.37729035307037E-04 -.16447767317859E-04 0.53547485994588E-05 -.50490501641677E-04 0.18083625021675E-04
  59       11PZ      0.98940878383549E-06 -.22146528533905E-04 -.59245695622911E-05 0.24823162999401E-04 -.44518162601713E-04
  60       12XX      -.24746146697122E-03 -.34712814433082E-04 -.74923370530345E-02 -.22518639971934E-03 -.14096140508185E-03
  61       12YY      -.92366297588541E-04 -.22279814998278E-04 -.75808621987230E-02 -.40780675555194E-03 0.92410289402029E-06
  62       12ZZ      -.15696705904144E-03 -.45409901261640E-04 -.75537343083201E-02 -.22071642780995E-03 -.13414343202058E-03
  63       12XY      -.51711606834459E-04 0.44270593301353E-05 0.28982965372346E-04 0.77763192888471E-04 -.34914193748118E-04
  64       12XZ      0.10919628330980E-03 -.25237244355909E-04 -.62092291060844E-04 0.22039474209880E-03 0.13743045006525E-03
  65       12YZ      0.14582169453867E-04 -.25522456937616E-04 -.12663988648636E-04 0.46326912117506E-03 -.75049580555797E-04
  66 4   H  1S       0.23258776926952E-04 0.18391778007712E-04 -.65026870989560E-04 -.48629846615870E-04 -.20074445636834E-03
  67        2S       -.27462485128712E-03 0.22693250508153E-03 -.16617516585789E-03 0.27256927893193E-02 -.38716788450501E-03
  68        3PX      -.30701526126749E-04 0.35272491620041E-04 -.16644084838887E-04 -.87674474595220E-04 0.39568891262682E-04
  69        3PY      -.11340303308439E-04 -.11217045822558E-04 0.69747042746570E-04 0.12337689013872E-03 -.45111098419098E-04
  70        3PZ      0.15561776604483E-04 -.10434539552169E-04 -.39338023633229E-04 0.41740078321635E-04 0.27945186700847E-04
  71 5   H  1S       -.28081046046438E-04 0.16304051367923E-04 -.79350059741846E-04 0.17241683048774E-03 -.60734465044216E-04
  72        2S       0.45856617557173E-03 -.43026715342071E-03 -.26890617793968E-03 0.27153232884033E-02 -.66748133563986E-03
  73        3PX      0.11265169121194E-04 0.96354577098548E-05 0.64791184249827E-05 0.72870745725943E-04 0.10755831784945E-03
  74        3PY      0.12996187217140E-04 -.74636468565669E-05 0.19383027901989E-04 -.13543053650863E-03 0.77999212786706E-04
  75        3PZ      0.85799582238457E-05 -.17787319765640E-04 -.69471938644585E-04 -.13471311302674E-03 -.77506772374161E-05
  76 6   O  1S       0.99280003835478E+00 0.33439970438580E-03 -.36031932185873E-04 -.26781311851832E-07 -.20668011939987E-04
  77        2S       0.24540972572373E-01 0.14877487001507E-03 0.17527840444584E-03 -.75994813751105E-04 -.13217728059087E-03
  78        3S       0.15135312575134E-01 -.68726738868743E-03 -.13647244061113E-03 -.24079900068982E-03 0.11656987326172E-02
  79        4S       -.17984420076888E-01 0.47840003676767E-02 -.52033829987110E-04 -.29794902614904E-02 0.45466791433749E-02
  80        5PX      0.11552205249882E-02 -.22219256697836E-04 0.18055007191371E-03 0.30731403268921E-04 -.30889494946842E-05
  81        5PY      0.30893965425173E-03 0.87334075561739E-05 0.45618238440306E-04 -.37883684978639E-04 -.86848711228925E-05
  82        5PZ      -.68393524883096E-03 0.22035536164358E-05 -.10522182074127E-03 0.24190941106163E-04 0.86239464508714E-05
  83        6PX      -.55461635888387E-03 0.47872508360738E-04 -.20461008105574E-04 0.86020081639229E-04 0.83237391046847E-03
  84        6PY      -.13793332444355E-03 0.17251664037485E-04 0.19919899474280E-04 0.12436678279876E-04 0.31047948301710E-03
  85        6PZ      0.33706467911084E-03 -.95337640512085E-05 -.24871475996934E-04 -.14293056276101E-03 -.49171601622550E-03
  86        7PX      -.23465091998103E-02 0.36046540417518E-03 -.13519783517093E-03 -.75714472741062E-03 0.37149404141370E-03
  87        7PY      -.86550278036517E-03 0.69558946937947E-03 -.65579857087334E-04 -.14373073208548E-02 -.35190838722277E-03
  88        7PZ      0.14000141491030E-02 -.68916623239892E-03 0.78840235283790E-04 0.96885585061593E-03 -.71751400125293E-04
  89        8XX      -.81784618010095E-02 -.60087012984506E-05 -.60276828362316E-04 0.11756628891967E-03 0.78336453593549E-04
  90        8YY      -.81557842759265E-02 0.97006713606129E-04 0.34712831511671E-04 -.29496776914448E-05 -.89308067875523E-04
  91        8ZZ      -.81648333703304E-02 0.82285198941889E-04 0.24323570063564E-04 -.78845458068689E-05 -.28639283039574E-04
  92        8XY      -.81988684786485E-05 0.53608854719693E-04 -.11567894597961E-04 0.12177933703311E-04 0.50347696330517E-04
  93        8XZ      0.10505022486424E-04 0.13317942089271E-04 0.63447457012377E-04 -.14690373499308E-03 -.90626382478104E-04
  94        8YZ      -.70375352956821E-05 -.38644863286845E-04 0.18480494508096E-04 -.10542753706525E-03 -.48384049688638E-04
  95 7   O  1S       -.27982717307177E-03 0.99281731245686E+00 -.32904767916385E-04 -.82871323176489E-04 -.85158973288855E-05
  96        2S       0.13114701653701E-03 0.24582073568091E-01 0.13648694856040E-03 -.51453809174165E-03 -.10754380514179E-05
  97        3S       -.74479364853587E-03 0.14719201145748E-01 0.80624591084014E-04 0.23413613755285E-02 -.50624513217639E-03
  98        4S       0.52219818342410E-02 -.15462222725393E-01 -.67168726374079E-03 -.13936916877315E-02 -.11823513546833E-02
  99        5PX      0.12236842920573E-04 -.93695246189834E-03 -.18489830099959E-03 0.67076168565867E-07 -.47057646366729E-04
 100        5PY      -.33048991451550E-05 0.74924789103647E-03 0.15305656351349E-03 -.88173269564831E-04 -.77987510567031E-04
 101        5PZ      -.95831714607228E-05 0.10018257669003E-03 0.13059267036441E-04 0.60442528252993E-04 -.15146954550041E-04
 102        6PX      -.31695566457806E-04 0.56157819205854E-03 -.12380960493886E-03 -.72363331262143E-03 0.29731856477582E-03
 103        6PY      0.62789589848510E-04 -.38957197123408E-03 0.77659186201647E-04 0.13777323394280E-02 -.20559717781777E-03
 104        6PZ      0.48852728403142E-05 -.74932602578400E-04 0.24519357623169E-05 -.43311462703048E-03 0.15712443604537E-03
 105        7PX      -.40314449492091E-03 0.15706396090870E-02 0.12607381726195E-03 0.87138581310064E-04 -.60720106152692E-03
 106        7PY      0.11195958275593E-02 -.20638789568875E-02 -.16924887268241E-03 -.18200060813500E-02 -.56485640640749E-03
 107        7PZ      -.46805852936977E-03 0.74722138532774E-04 0.39947053775848E-04 0.36446003252701E-03 0.89186843254020E-03
 108        8XX      0.71923103586038E-05 -.81905658236295E-02 0.26206298461177E-04 -.18843943608697E-03 -.16977609105314E-04
 109        8YY      0.14589552523415E-03 -.81571319818141E-02 0.13397193110506E-04 0.30286696376782E-04 -.40864725627875E-04
 110        8ZZ      0.67378756294009E-04 -.81076174126989E-02 0.16566734021883E-04 -.29954133281704E-03 -.10358158411143E-03
 111        8XY      -.22189276515770E-04 0.78597489891857E-04 -.61320093343559E-05 -.24474803052937E-03 0.46374903181793E-04
 112        8XZ      0.46283058670351E-04 0.79565805528534E-05 0.13837947068298E-04 0.42658875190020E-05 -.52914612995871E-04
 113        8YZ      -.32976414308805E-04 -.92086310239040E-05 0.19444225170416E-04 -.20286596315878E-03 0.47379483871313E-04
 114 8   C  1S       -.12665064244070E-04 -.49977648387524E-05 0.10087558077822E-04 -.13627993991401E-03 0.10877724095776E-01
 115        2S       -.42580081259873E-04 -.10660342487427E-04 0.31538144486981E-04 -.22310577783499E-03 0.27977164549918E-03
 116        3S       0.36079730555264E-03 0.28178347385461E-06 -.10095249445057E-03 0.30585329388154E-03 0.49436620592846E-02
 117        4S       -.29537307910198E-02 -.99124218593702E-03 0.16936937887830E-03 -.35594177321087E-02 0.16726461520185E-02
 118        5PX      -.71117488759402E-05 0.16118299265741E-05 -.15247992722054E-04 0.90997002705351E-04 -.21358972927594E-04
 119        5PY      -.17965722738042E-05 0.28975277965101E-05 -.13387352212468E-04 0.10062647152016E-03 -.59322047299220E-04
 120        5PZ      -.10350802551273E-04 -.50426918708066E-05 -.68774101476048E-05 0.91722753495938E-04 -.11995564551392E-04
 121        6PX      0.71379302901706E-04 -.21986363491888E-04 0.95864399777321E-04 -.37604574661775E-03 -.20120613445883E-03
 122        6PY      0.76249090581977E-04 -.20746579640378E-04 0.75800718289473E-04 -.48582962307886E-03 -.90319691366239E-03
 123        6PZ      -.30664755448554E-04 0.11179521334879E-03 0.69888329780368E-04 0.21976963578436E-03 -.22232070935012E-02
 124        7PX      0.44015523720607E-03 0.27198995016056E-03 -.10768369283246E-06 0.65588364393130E-05 0.12479796062471E-04
 125        7PY      0.63015895825835E-03 0.38834076339155E-03 0.23593990999024E-05 0.33817532251974E-03 -.72931843912939E-04
 126        7PZ      0.44413703632656E-03 0.11988164525194E-03 -.33031468093697E-04 0.94751056050868E-03 -.34223482402484E-03
 127        8XX      -.23837538951940E-04 -.21257325333468E-04 0.19567456976197E-04 -.72132418388886E-04 -.29597934539196E-03
 128        8YY      -.19641545356833E-04 -.56007679827036E-05 0.27916926488983E-04 -.11903848424806E-03 -.20537233590082E-03
 129        8ZZ      -.26815202688358E-04 -.10655189208331E-04 0.12755510463790E-04 -.10287863500426E-03 -.47052992647896E-03
 130        8XY      0.18833308780887E-05 -.19126214110010E-05 0.31619202900925E-07 0.39681265206230E-04 0.62726480127133E-04
 131        8XZ      -.48057928638115E-06 0.50419685485127E-06 -.33498124198288E-05 0.93490175169669E-05 -.12938265940499E-04
 132        8YZ      0.49784254760696E-05 -.45046331781198E-05 -.36492408428846E-06 -.51953594794432E-05 -.92070405917038E-04
 133 9   H  1S       0.14063116453815E-05 0.60636391590014E-04 0.23081385815173E-04 -.86595148620814E-04 -.13045211956755E-03
 134        2S       -.34535444387653E-05 -.61864929287550E-04 -.53582821984154E-04 -.21276237809286E-03 0.47906777714361E-02
 135        3PX      0.41437338207108E-05 0.16891688426022E-04 0.13036524974050E-04 -.15476420142390E-03 0.24838659019890E-04
 136        3PY      0.15394178574200E-05 -.27454318648527E-04 -.44566760644282E-05 -.26153430446358E-04 -.11500628030084E-03
 137        3PZ      0.31509400800215E-05 -.62926592235383E-05 -.40379250742447E-06 -.43565403570058E-05 0.51734411998559E-04
 138 10  H  1S       0.63684150970505E-05 0.58076242761410E-05 -.35356705174768E-05 -.14649383865828E-03 -.19618697544597E-03
 139        2S       -.11258950257740E-03 0.39011364260485E-04 -.46998902726091E-04 -.21470813081058E-03 0.39165598622750E-02
 140        3PX      0.36862380473678E-05 0.57414055541923E-06 0.10379802685199E-05 -.24609076285465E-04 -.68106529710943E-04
 141        3PY      0.51797983131343E-05 0.24833299238356E-05 -.87391785399536E-05 -.15726685193592E-04 0.17467026788273E-03
 142        3PZ      0.61804102169819E-05 -.41510662584462E-05 0.14528128759577E-05 0.13771248135194E-04 -.16158729741271E-03
 143 11  H  1S       -.17978067528230E-04 -.19667555912974E-05 0.17997079984575E-04 -.46985666362087E-04 -.17984076308890E-03
 144        2S       0.99296384467700E-04 -.24001099343174E-03 -.42022535845687E-04 -.91325516403937E-03 -.15054451899337E-03
 145        3PX      0.58675132284765E-05 0.22109497499443E-05 -.36350859262406E-05 0.73582820424368E-04 0.13560974216388E-04
 146        3PY      0.16830104901656E-05 -.13608390732517E-04 -.55379893605944E-05 0.47643097878290E-04 0.16488094746114E-04
 147        3PZ      -.14303354453884E-04 -.63540300453900E-05 0.39234104479629E-05 0.63763571270281E-04 -.36394042765991E-04
 148 12  H  1S       -.12325765594390E-04 0.18703926822359E-06 -.66537624444819E-05 0.10324945623341E-04 -.22147706578052E-03
 149        2S       -.16689865108222E-03 0.50563714153271E-04 -.84911985818126E-04 0.62878243787858E-03 -.29208334143305E-03
 150        3PX      0.47321353214513E-06 -.24640152058340E-05 0.42334052290331E-05 -.25335399898190E-04 0.11673017919471E-04
 151        3PY      0.46940263528065E-05 -.30100033652813E-05 0.96376089143842E-05 -.36660006757480E-04 0.49358723329561E-05
 152        3PZ      0.78292713194486E-06 -.56174819292763E-05 -.17934884587951E-05 -.33490935099807E-04 0.49027702984683E-04
 153 13  H  1S       0.78107888947651E-06 -.65625384297581E-05 0.34330782348274E-04 -.13542688876668E-03 -.23748528193492E-04
 154        2S       -.14792069432187E-03 -.36686013355006E-04 -.35275526368447E-04 -.75976436547211E-05 -.22484790111709E-03
 155        3PX      0.51072633720552E-05 0.41106793289860E-06 -.36125819349845E-06 -.10732488697191E-04 0.42725071741201E-04
 156        3PY      0.10470335435003E-04 0.64380150958072E-05 -.26371623810747E-05 -.17655047539294E-04 -.69451594119814E-04
 157        3PZ      0.11566789364254E-05 0.29636344021197E-05 -.71851553467027E-06 -.21665773923301E-04 -.21275767000459E-03
                           6         7         8         9        10
                           O         O         O         O         O
     Eigenvalues --  -.10318049320837E+02 -.13090150041081E+01 -.11380566379134E+01 -.98195628589715E+00 -.87847430677004E+00
   1 1   C  1S       0.52729240062047E-04 -.46053080341683E-01 0.22896791671519E-01 -.15073004759034E+00 0.18574308381687E-01
   2        2S       -.22922503206655E-03 0.86727034738305E-01 -.44497004265407E-01 0.28498413654853E+00 -.43786371031077E-01
   3        3S       0.56356717630895E-03 -.21500347103527E-02 -.24306146797725E-01 0.22556628966179E+00 -.11120138725307E-01
   4        4S       -.14348157580540E-01 0.41000161478579E-01 -.41702673122979E-01 0.71239780278950E-01 -.98139323184350E-02
   5        5PX      -.11661329679783E-03 -.95011541313488E-02 -.26607804916649E-01 -.40435511618782E-02 0.91169230206940E-01
   6        5PY      -.48490611744614E-04 -.58398199450416E-01 0.33130593089033E-01 -.68292404291382E-01 0.12981135677991E+00
   7        5PZ      -.71110759911316E-04 0.43007791024622E-01 -.91207290294184E-02 0.70815797485449E-01 -.52415082485277E-01
   8        6PX      0.66976527967646E-04 -.27279472020731E-02 -.16635502714520E-01 0.77795391034226E-02 0.17785107086920E-01
   9        6PY      -.63371663632081E-04 0.13788264016521E-01 0.78100284006551E-02 0.19023403962316E-02 0.77163053569989E-02
  10        6PZ      0.24154880559501E-03 -.71760703058614E-02 0.66654949596316E-02 0.55963262347541E-02 0.13970291215881E-02
  11        7PX      -.32745723048294E-02 -.17298822177153E-02 0.17999630331822E-01 -.27778310269606E-02 0.86833615621422E-02
  12        7PY      -.15437059450987E-02 -.10796940161572E-01 0.35760452709927E-02 -.26295076216553E-01 0.18763618303133E-01
  13        7PZ      -.14846338029942E-02 0.11968348728309E-01 -.17392374414624E-01 0.13130355796119E-01 -.21755230636174E-02
  14        8XX      -.12386477399399E-03 -.55676418697578E-02 0.37599875787374E-02 -.71420781474825E-02 0.12139715502953E-01
  15        8YY      -.94970009683761E-04 0.57374577668784E-02 -.48721807637715E-02 0.28419261136681E-03 -.51189755964764E-02
  16        8ZZ      -.57904241223223E-04 0.13964218246075E-02 0.22271038205176E-02 -.43330524117865E-02 -.15363405902374E-02
  17        8XY      0.24178088243460E-04 0.41950412816926E-02 0.43659317323232E-02 0.50104169085975E-02 0.20572109327302E-02
  18        8XZ      -.54942293281928E-06 -.25002665780040E-02 -.43511173783534E-02 -.26798238659283E-02 0.35874075440950E-02
  19        8YZ      0.32344488542928E-04 -.10390531770320E-01 0.28342863947801E-02 -.98880417357330E-02 0.99902388553658E-02
  20 2   C  1S       -.11129167442107E-01 -.58084434232310E-02 0.92176856338502E-02 -.72776617355889E-01 -.13919581286761E+00
  21        2S       -.77047550213279E-03 0.10051198849756E-01 -.15982335758553E-01 0.13160879575275E+00 0.25688120811722E+00
  22        3S       0.55758831208990E-02 0.79678542190595E-02 -.32768976932965E-02 0.98762052981840E-01 0.23219454507316E+00
  23        4S       0.16906568493667E-01 -.15208648619594E-01 0.54614724821131E-01 -.53117069513166E-02 -.79875410395279E-02
  24        5PX      0.18284475062848E-04 -.69887880899864E-02 0.56767643895893E-02 -.42750274811056E-01 0.65097547445860E-02
  25        5PY      0.83469497742931E-04 -.72580330097012E-02 0.94669386437646E-02 -.27086557705627E-01 0.17971637771843E-01
  26        5PZ      -.78345723117075E-05 0.11751159983689E-02 0.10163192167364E-03 0.16439286248803E-02 0.22393797934278E-01
  27        6PX      0.65964761241875E-03 -.46922697766430E-02 0.96175700541635E-04 -.57291093620287E-02 -.87237647550809E-02
  28        6PY      0.58719021605945E-03 -.43525988414939E-02 -.16195143129890E-02 -.87015073396030E-03 0.56594364552943E-02
  29        6PZ      0.25633544228654E-02 -.11680838128530E-02 -.80962569493469E-02 -.13813377057500E-02 0.11212245226424E-03
  30        7PX      -.33310044513296E-02 -.17850176361963E-02 -.89585051480236E-02 -.17896357352746E-02 0.43596096038179E-02
  31        7PY      -.22820826451943E-02 0.25587341598351E-03 -.19358493453742E-03 0.65284331989383E-02 -.38714815440133E-02
  32        7PZ      0.14811794607747E-02 -.83880285154511E-02 0.22384886421686E-01 -.56955714498940E-02 -.26448426972184E-02
  33        8XX      -.57534987266866E-04 0.14377055313065E-02 -.43550987517770E-03 0.29471903492763E-02 -.63926029404863E-02
  34        8YY      -.88854905496411E-04 0.11996583448857E-02 -.71704266195131E-03 -.17036039064426E-02 -.45678153556195E-02
  35        8ZZ      -.29463277460784E-03 -.29338758637678E-03 0.50182516802583E-03 -.22771378650349E-02 0.23775847687562E-02
  36        8XY      -.74624654010321E-04 0.19326856120756E-02 -.11312198031555E-02 0.51355092053015E-02 -.12561323902964E-02
  37        8XZ      -.53029719755995E-05 -.15850475169988E-03 0.24610699473190E-04 0.13945836542777E-03 0.24336419008176E-03
  38        8YZ      -.85096711529595E-04 -.21815322659832E-03 0.75761682875913E-04 0.14291429811456E-02 0.37777111204350E-02
  39 3   N  1S       0.22503882528134E-04 -.16596980461333E+00 0.14793649004638E-01 -.51218066642689E-01 0.55981244178798E-01
  40        2S       0.10113443279246E-03 0.35351848002369E+00 -.32544306077874E-01 0.11537728263255E+00 -.12948961892525E+00
  41        3S       -.46710109797246E-03 0.27317429007963E+00 -.32047067125330E-01 0.13443552384163E+00 -.16265472091341E+00
  42        4S       -.14312392646690E-03 0.12838456875777E+00 0.33650895518630E-01 -.23987237874969E+00 0.12648047127284E+00
  43        5S       -.18213780015173E-03 -.22998852517445E-01 0.75969678925111E-02 -.42115181976716E-02 0.16226934243825E-02
  44        6S       0.59922096180570E-04 0.43352417952049E-02 -.78260090346628E-03 0.66272502591039E-03 -.68972664569125E-03
  45        7PX      -.31506081142998E-05 -.25672947531075E-01 -.26616244498655E+00 -.30730826984598E-03 -.14630513956469E-02
  46        7PY      -.43455275747977E-04 -.34936514111233E-01 0.41286131801333E-01 0.24988952156339E+00 -.11978609374123E+00
  47        7PZ      -.36486917443741E-04 0.21414665010410E-01 0.10968941117857E+00 -.14420685126939E+00 0.10617347756713E+00
  48        8PX      -.15391665622763E-03 0.89802779643693E-02 -.36061994373048E-01 -.60099441128563E-02 0.16777448441522E-02
  49        8PY      -.28282340898291E-03 0.20893825014351E-01 0.53734333559129E-02 0.61121494244441E-01 -.39622005786168E-01
  50        8PZ      0.28268298561437E-03 -.17685616016010E-01 0.14833160883431E-01 -.33641078457017E-01 0.36421545228876E-01
  51        9PX      0.93401415565211E-03 -.48021760016568E-01 -.16088404577909E+00 -.40200399311090E-01 0.93601225454927E-02
  52        9PY      0.19464582719012E-02 -.55332766615453E-01 0.42112261819902E-01 0.13158531767860E-01 -.10757121289187E-01
  53        9PZ      -.11591673469010E-02 0.50234166392054E-01 0.57766572372381E-01 0.87142237779309E-02 0.34248106478404E-02
  54       10PX      -.28024619231762E-03 0.32761131633561E-02 0.94757399667041E-02 0.29584670116509E-02 -.14771636194420E-02
  55       10PY      -.15823720462835E-03 0.28000437450566E-02 -.14685063470489E-03 -.16680882494894E-02 0.80461737383723E-03
  56       10PZ      0.25966434032234E-03 -.31405717898018E-02 -.42397054714099E-02 0.44897266911287E-03 -.11033969160678E-04
  57       11PX      0.96580430359167E-04 -.10001057975410E-02 -.21006669491726E-02 -.73641467887411E-03 0.78590425751511E-04
  58       11PY      0.71926928774284E-04 -.81130210515349E-03 0.37335250538522E-03 0.46326505305382E-03 -.48174506025216E-03
  59       11PZ      -.56680087289924E-04 0.77002867734735E-03 0.86222485598618E-03 0.10725650936410E-03 -.73201362523716E-04
  60       12XX      0.49708604403822E-04 0.71635975282108E-02 0.34843717073042E-02 -.15921387523050E-01 0.10711473537642E-01
  61       12YY      0.20749535853325E-04 -.10546611446305E-01 -.89759270078834E-02 0.37195543009919E-02 0.12460951073880E-02
  62       12ZZ      0.62862935569882E-04 -.11795660723723E-01 0.54491808639802E-02 0.26628902823392E-02 0.62732980938790E-03
  63       12XY      -.27748155480163E-04 -.37869500287980E-02 0.18384931929956E-01 0.91262139829077E-02 -.63779570293604E-04
  64       12XZ      -.30155462423590E-04 -.12798927200283E-01 -.96484719918375E-02 0.29249814228216E-02 -.32439328398089E-02
  65       12YZ      -.34699784045217E-04 -.35764201732354E-02 -.32750289284158E-02 -.98436978182559E-02 0.40209910509362E-02
  66 4   H  1S       0.24447036428308E-04 0.14220303839623E-01 -.64783076258368E-03 0.75902315368746E-01 -.37365649796540E-02
  67        2S       -.60147424095863E-03 0.41282582204347E-02 -.10388372825131E-01 0.66722707688535E-02 0.24089261210426E-03
  68        3PX      -.52398608769376E-04 0.16222358007182E-02 -.31619028626430E-03 0.58955607684028E-02 0.51724449873242E-03
  69        3PY      -.40737495663036E-04 -.22561080098108E-02 0.18273592001611E-03 -.53741786295809E-02 0.21512353623646E-02
  70        3PZ      -.70780424948426E-04 0.48384226858358E-03 -.11772882950931E-03 0.26415855882176E-03 -.23274273526915E-03
  71 5   H  1S       -.27635329926904E-04 0.13115066159666E-01 -.12233022053059E-01 0.62647618306294E-01 -.41105479023173E-02
  72        2S       0.95359103337927E-06 0.13241685101475E-01 0.61526178345708E-02 0.12013890615649E-01 -.51828224812840E-02
  73        3PX      0.15647438653765E-04 0.10206053401598E-03 -.16146225745321E-04 -.12260164698850E-02 0.15045788289886E-02
  74        3PY      0.25321475584035E-04 0.25064163971128E-03 0.43729714944038E-03 0.27056354046580E-02 0.10800560914698E-02
  75        3PZ      0.11534079702132E-04 0.23961688752194E-02 -.15294692892012E-02 0.69323081245737E-02 -.13144047690972E-02
  76 6   O  1S       0.45565206607562E-04 -.11438375605867E+00 -.14337863544017E+00 0.54186764599398E-01 -.44794343692429E-01
  77        2S       0.19673217022941E-03 0.24424829012371E+00 0.31322866510468E+00 -.12273466155997E+00 0.10187659982083E+00
  78        3S       -.11001990569944E-02 0.24496789417916E+00 0.34798347262551E+00 -.14813001359247E+00 0.13285641165633E+00
  79        4S       0.27209649739384E-02 -.17471703939572E+00 -.23119758304338E+00 0.41525851811982E-01 -.39433212657397E-01
  80        5PX      0.13814934980889E-04 0.10487060183559E+00 0.81022370949412E-01 -.24500520794559E-01 -.28932699503115E-02
  81        5PY      0.18395915632362E-04 0.24688803911256E-01 0.32346672943932E-01 0.31280134191914E-01 -.23020196318864E-01
  82        5PZ      0.12978412551678E-04 -.62252515839883E-01 -.53736154546453E-01 -.73452540835472E-02 0.22764304349827E-01
  83        6PX      -.20818402897185E-03 0.46541465934700E-01 0.37844213165926E-01 -.19027900163124E-01 0.41937645754070E-02
  84        6PY      -.79000266129852E-04 0.78545852549380E-02 0.19366449233109E-01 0.13333401571071E-01 -.92761453127639E-02
  85        6PZ      0.20657812932173E-05 -.26048092241442E-01 -.27037253465619E-01 0.88934778304169E-03 0.73112780383720E-02
  86        7PX      0.60319479504151E-03 -.43983075624332E-01 -.44507968546903E-01 0.18070718908167E-01 -.11710055007010E-01
  87        7PY      -.71584019833493E-04 -.31921569647987E-02 -.24910404455226E-01 -.27871754189422E-02 0.35144064153622E-03
  88        7PZ      0.29325243233292E-04 0.22495465222200E-01 0.31247664881166E-01 -.36119292395039E-02 0.16091711079318E-02
  89        8XX      0.94351871679902E-04 0.10360294077026E-01 -.32283700286808E-04 -.35098750849679E-02 -.40382845433505E-03
  90        8YY      0.13261691402495E-03 -.10667524249784E-01 -.90693632176883E-02 0.47668088631502E-02 -.23944177764427E-02
  91        8ZZ      0.14243862880997E-03 -.30722308534351E-02 -.44816848637337E-02 0.35184848175816E-02 -.35251573695725E-02
  92        8XY      -.20845135883266E-04 0.55849047091702E-02 0.70410991839476E-02 0.48051386235250E-02 -.28888211186818E-02
  93        8XZ      0.15229536883143E-04 -.13642115366281E-01 -.80929427762820E-02 -.34805617931718E-03 0.29506714816132E-02
  94        8YZ      0.35228064832234E-05 -.19472954415287E-02 -.30661100190849E-02 -.45409769700458E-02 0.32003964287969E-02
  95 7   O  1S       0.32443268627415E-04 -.89394613480604E-01 0.14470721220754E+00 0.95129727121655E-01 -.41443194957588E-01
  96        2S       0.14028155641806E-03 0.19150006448905E+00 -.31312057986307E+00 -.21158823310745E+00 0.92745077687182E-01
  97        3S       -.50938810143371E-03 0.17568956937746E+00 -.34779488228245E+00 -.25504370736034E+00 0.12447878363979E+00
  98        4S       0.20124382900364E-03 -.68446231422727E-01 0.21928541163880E+00 0.12852465251026E+00 -.56965014536931E-01
  99        5PX      -.15152117009645E-04 -.77572168081835E-01 0.73752310567433E-01 0.37111097793288E-01 0.11886324916550E-01
 100        5PY      0.38555155954970E-04 0.60900486452440E-01 -.77759764175048E-01 0.80395108811990E-02 -.17551856929550E-01
 101        5PZ      -.16352597188414E-05 0.64526441234896E-02 0.35269548936165E-02 -.24613608917483E-01 0.15251148809567E-01
 102        6PX      0.15752511519156E-03 -.34877603888059E-01 0.35200513927923E-01 0.24129038140627E-01 0.79425807273411E-03
 103        6PY      -.15324088497983E-03 0.24786330139766E-01 -.43162219214616E-01 -.37087436535517E-02 -.39420722163067E-02
 104        6PZ      -.26084526568150E-04 0.40795863001745E-02 0.50252659132868E-02 -.10671066427048E-01 0.75946032166602E-02
 105        7PX      -.59555558058220E-03 0.30661706311189E-01 -.41110306835326E-01 -.26183320706891E-01 0.11272692274553E-01
 106        7PY      -.77967043887812E-03 -.93103068800098E-02 0.47697352807172E-01 0.24015887532389E-01 -.87581688874402E-02
 107        7PZ      0.12398583011391E-03 -.99553459708620E-02 -.53083397303488E-02 0.44687668058323E-02 -.31624558052180E-02
 108        8XX      0.10019461456978E-03 0.87205347484171E-02 0.19146630197539E-02 -.23897055307060E-02 -.13367012987343E-02
 109        8YY      0.37663862019423E-04 0.63733011193022E-03 -.81207564579187E-03 0.85836581360023E-02 -.42833931050676E-02
 110        8ZZ      0.13662994308227E-03 -.72763056972646E-02 0.10751189009417E-01 0.39571336656338E-02 -.65120296809341E-03
 111        8XY      0.10023846012526E-04 -.13916829690829E-01 0.12778057951350E-01 0.10935873635961E-02 0.33111368746234E-02
 112        8XZ      0.15457338172908E-04 -.18854531451973E-02 -.19227234234981E-02 0.31974079190009E-02 -.22644949827978E-02
 113        8YZ      -.13005628204555E-04 0.20829352535396E-02 -.11772583208854E-03 -.37814804711739E-02 0.21763291805388E-02
 114 8   C  1S       0.99335110910730E+00 -.16206142036181E-02 0.20914150735523E-02 -.31236547896342E-01 -.12327397624307E+00
 115        2S       0.47428441840452E-01 0.73293191369100E-03 -.40992935956630E-02 0.56718045985199E-01 0.22793311872874E+00
 116        3S       -.19254207815086E-01 0.77282454072202E-02 0.52780487392073E-02 0.43274291722229E-01 0.20807782935860E+00
 117        4S       -.32056563915053E-02 0.15010140178915E-01 -.41541403514091E-01 0.10687678289029E-01 0.63604280917953E-03
 118        5PX      -.16223238501561E-03 -.60991711348330E-03 0.39696571355604E-03 -.90063797200391E-02 -.61686683928486E-02
 119        5PY      -.12751963226490E-03 -.99477597850477E-03 0.14652884235775E-02 -.13285830846214E-01 -.22235476686433E-01
 120        5PZ      -.19624959204745E-03 -.66759245026222E-03 0.14812117527452E-02 -.20710013357359E-01 -.47986127988584E-01
 121        6PX      0.10499389687177E-02 -.21665788038749E-02 0.17622955714749E-02 -.52571579368783E-02 -.63989009495685E-02
 122        6PY      0.14445316781035E-02 -.47248184076696E-02 0.17762075768993E-02 -.58277184124376E-02 -.61800002602375E-02
 123        6PZ      0.22420255244517E-02 -.32517502395349E-02 -.12957980077794E-02 -.45756467414543E-02 -.13677223001056E-01
 124        7PX      0.47012376493379E-04 0.14322499540526E-02 0.19453679919951E-02 -.14161305707979E-02 0.27130585245038E-02
 125        7PY      0.34054802123889E-03 -.16840803291099E-02 0.58800077186848E-02 -.55988157517169E-02 0.36674670868127E-02
 126        7PZ      0.38529456175371E-03 -.33081193673848E-02 0.84580723098895E-02 -.94700402799713E-03 0.17059201887920E-02
 127        8XX      -.77346234648464E-02 -.44477880517695E-03 0.23243907046361E-03 -.11166388296638E-02 -.52071706282374E-02
 128        8YY      -.75257934127410E-02 -.90276927434095E-04 -.28434567723974E-04 -.47159196853908E-03 -.34334567157711E-02
 129        8ZZ      -.79504380226584E-02 -.12453593886098E-03 -.17515686249496E-03 0.18059072731123E-02 0.23178022256393E-02
 130        8XY      0.27661383439297E-03 0.25837387047483E-03 -.43648466603511E-04 0.10197822571237E-02 0.20109074304945E-02
 131        8XZ      -.16101159886100E-04 0.12475390334493E-03 -.11095447430172E-03 0.12200187120177E-02 0.15116564192769E-02
 132        8YZ      -.33454920691103E-03 0.25589536600374E-03 -.20083504396068E-03 0.20604369698462E-02 0.26647454645397E-02
 133 9   H  1S       -.18951510876262E-03 0.33668721101924E-02 -.82959106141803E-02 0.42099579600705E-01 0.93417395557931E-01
 134        2S       -.13528249687040E-02 0.85724448487562E-02 -.21984003318283E-02 0.16844282329842E-02 0.14994916864197E-01
 135        3PX      -.79542639151589E-05 -.84705760119428E-03 0.86696071461922E-03 -.31043332163728E-02 -.53346080939642E-02
 136        3PY      -.13041441009408E-04 -.27803334438760E-03 0.37972086728825E-03 0.30506337614852E-02 0.61884378301017E-02
 137        3PZ      -.91105583432196E-04 0.39103196440917E-03 -.17760671257154E-03 0.71741382196429E-03 0.20010547295429E-02
 138 10  H  1S       -.83411673100572E-04 0.12093928744359E-02 -.30141768682569E-02 0.37297853558072E-01 0.92312012918602E-01
 139        2S       -.35691605921071E-03 -.45740777384998E-03 -.26644585862080E-02 -.70284177854691E-03 0.16292212420884E-01
 140        3PX      -.15427964997926E-04 0.22979034230919E-03 -.94289927084235E-04 -.16535941811027E-03 0.39309696359562E-04
 141        3PY      -.54705285267680E-04 0.18754344848674E-03 0.37973949432680E-03 -.27633404601825E-02 -.55946349283347E-02
 142        3PZ      -.11880844850638E-04 0.84170774081664E-04 -.15244380367029E-03 0.27254118792501E-02 0.62929636722136E-02
 143 11  H  1S       -.27489859963474E-03 0.91493119051294E-03 -.15344245208240E-02 0.18898799878032E-01 0.80554973463762E-01
 144        2S       0.34491364165504E-02 -.41867340632642E-03 -.17234305418634E-03 0.42041144433013E-02 0.91829765981327E-02
 145        3PX      -.26305534533006E-04 -.99832339589811E-04 0.59602524909872E-04 -.25108908400960E-03 0.50065765181864E-03
 146        3PY      -.18985068721805E-03 -.18683740606830E-03 0.10162279649405E-03 0.93151065044535E-03 0.50524636399192E-02
 147        3PZ      0.82656774244846E-04 -.24912699607945E-03 0.25175844010658E-03 -.15694765436295E-02 -.53202428557058E-02
 148 12  H  1S       -.44013099250000E-03 0.30775470934717E-03 -.10422725714449E-02 0.14398641076758E-01 0.79051117668626E-01
 149        2S       0.28525173572320E-02 0.18185390904070E-02 -.28231390258378E-02 0.33522867593060E-02 0.14442224030947E-01
 150        3PX      0.15837633958499E-03 -.85611873087009E-04 0.11413359597473E-03 -.90620306923166E-03 -.44151382162045E-02
 151        3PY      0.14938639888134E-03 -.49454368918755E-04 0.14577463602756E-03 -.10908834470216E-02 -.55749048521657E-02
 152        3PZ      -.64582519466306E-04 0.67190327724495E-04 0.20818344220644E-04 -.15160870896769E-03 -.75192905716966E-03
 153 13  H  1S       0.21480615268678E-03 0.29306345733420E-03 -.65982856262980E-03 0.19418987272562E-01 0.64841283660367E-01
 154        2S       0.26965512873323E-02 0.68240150790796E-03 -.27854531690186E-02 0.48688798993875E-02 0.13272854443844E-01
 155        3PX      -.19259046009174E-03 -.51848199050461E-06 -.62908620455066E-04 0.12641270469171E-02 0.60033666319028E-02
 156        3PY      0.60225963957297E-04 -.14185813669050E-03 0.75505283858688E-04 -.14417384390385E-02 -.27823203913355E-02
 157        3PZ      -.63048589025959E-05 0.41415985273093E-05 -.27281643186556E-04 -.65481164520065E-03 -.77177626331641E-03
                          11        12        13        14        15
                           O         O         O         O         O
     Eigenvalues --  -.77486176779571E+00 -.69662509304632E+00 -.64849704564751E+00 -.64788968710592E+00 -.61218722800633E+00
   1 1   C  1S       0.53104742168041E-01 0.80359330100175E-01 -.27636487626302E-01 0.98622269766533E-02 0.39643746173834E-01
   2        2S       -.97499229212894E-01 -.15669310537743E+00 0.53436183524104E-01 -.14962545615225E-01 -.73946795450802E-01
   3        3S       -.13497222969724E+00 -.22440454396556E+00 0.67227454762888E-01 -.34222580575120E-01 -.12598078554507E+00
   4        4S       0.33840516453608E-01 0.18568077783840E-01 0.44366117148045E-01 0.50546573781778E-01 -.83025562613557E-02
   5        5PX      -.72747574376001E-01 0.12366287178355E+00 -.10751476702082E+00 0.77817561253687E-01 -.10669612301321E+00
   6        5PY      -.10165461319267E+00 -.69094738857370E-01 0.26324806093302E+00 0.97055265581428E-02 -.98584304372280E-01
   7        5PZ      0.10501760142339E+00 0.71754666633423E-01 0.26154526265327E-01 0.21882841088078E+00 0.10275828666205E+00
   8        6PX      -.26467380253026E-01 0.41500824051695E-01 -.48463073693823E-01 0.26125970341707E-01 -.26918150847692E-01
   9        6PY      -.61242480966791E-02 -.10042648654842E-01 0.10871931235199E+00 0.13667463923301E-01 -.45769114454041E-01
  10        6PZ      0.30515605820926E-01 0.11755778019883E-01 0.20834191702438E-01 0.88485453385652E-01 0.29080816222063E-01
[...]
  98        4S       -.93569258166936E+01 -.63243629714223E-01
  99        5PX      0.77455303747638E-01 -.21871839065698E-02
 100        5PY      -.89926160293593E-01 0.20148806162939E-01
 101        5PZ      0.35921213928844E-02 0.12046222808447E-01
 102        6PX      -.63640301652477E+00 -.16973760367779E+00
 103        6PY      0.84673412655055E+00 0.25412068619085E+00
 104        6PZ      -.10795769319335E+00 -.10209874905132E+00
 105        7PX      0.13139393244840E+01 0.69580328650621E-01
 106        7PY      -.17247306113159E+01 -.20568075541022E+00
 107        7PZ      0.25631870609876E+00 0.60324880035214E-02
 108        8XX      -.13924432980105E+01 0.63079495460118E-01
 109        8YY      -.12932632356013E+01 0.11361633991992E+00
 110        8ZZ      -.15096629546320E+01 0.44842142752166E-01
 111        8XY      -.16642685532337E+00 -.95686187526600E-01
 112        8XZ      0.20824593693570E-01 0.15445214098831E-01
 113        8YZ      -.40514960855334E-01 -.53306186298467E-01
 114 8   C  1S       -.11363271621731E+00 0.16688210480782E+00
 115        2S       0.57015788287990E+00 -.91936873395008E+00
 116        3S       0.42134978873842E+00 -.15308723134479E+01
 117        4S       0.98597409647176E+00 0.56887210653222E-01
 118        5PX      -.25968760044403E-02 0.28872126437156E-01
 119        5PY      0.29272004598844E-01 0.16443056371073E-01
 120        5PZ      0.13646541618184E-01 0.35307567950458E-01
 121        6PX      -.19083044006100E+00 -.23081663294676E-01
 122        6PY      -.24225740912441E+00 0.88430763235758E-01
 123        6PZ      -.33798711935024E-01 0.35806120730635E+00
 124        7PX      -.78246528769877E-01 -.44793329192758E-01
 125        7PY      -.15135231364939E+00 -.68125271880167E-01
 126        7PZ      -.14135558714164E+00 0.14784778192649E-01
 127        8XX      -.45675705402518E+00 0.67920744513139E+00
 128        8YY      -.50534096657133E+00 0.70195029010293E+00
 129        8ZZ      -.44803284971366E+00 0.73098250266687E+00
 130        8XY      -.51176174205957E-01 0.54584860034597E-01
 131        8XZ      0.55306717943091E-02 0.26531587609966E-01
 132        8YZ      0.23896833321069E-01 -.52933652694736E-02
 133 9   H  1S       -.21977930552511E-01 0.25026114061409E+00
 134        2S       0.85820885874243E-01 -.57843487707219E+00
 135        3PX      0.32976437871128E-01 -.21056122229301E+00
 136        3PY      -.75843421994172E-01 0.18670409082222E+00
 137        3PZ      -.33491232495290E-01 0.14466874834912E-01
 138 10  H  1S       -.97622667736612E-01 0.17163968092374E+00
 139        2S       0.21070408419279E+00 -.40122226165834E+00
 140        3PX      -.59749057762177E-02 0.65371907405750E-02
 141        3PY      0.64188646753248E-01 -.18162127552889E+00
 142        3PZ      -.88308673569532E-01 0.16059238024242E+00
 143 11  H  1S       0.61574958324492E-01 -.84539039277016E-01
 144        2S       -.19663545904377E+00 0.77766721061449E-01
 145        3PX      0.18886403580839E-02 0.10219847243106E-01
 146        3PY      0.39837331764020E-01 -.72288719168329E-01
 147        3PZ      -.69144806576738E-01 0.10848166829814E+00
 148 12  H  1S       0.12875757111527E+00 -.79162218790106E-01
 149        2S       0.14725548206215E+00 0.26628121647790E+00
 150        3PX      -.78365899241878E-01 0.72778038730773E-01
 151        3PY      -.86142723491961E-01 0.78596271845781E-01
 152        3PZ      -.70349052120667E-02 -.11610461250762E-01
 153 13  H  1S       -.22396834038026E-01 -.36381481361001E-01
 154        2S       0.77349681408813E-01 0.14262163683923E+00
 155        3PX      0.30853112833633E-01 -.86544685855657E-01
 156        3PY      -.34361660566949E-01 0.39792871072091E-01
 157        3PZ      -.19105523360765E-01 0.52746038750160E-01
          Condensed to atoms (all electrons):
              1          2          3          4          5          6
     1  C    5.634443   0.125517   0.140117   0.407410   0.359105  -0.090301
     2  C    0.125517   5.551874  -0.086675  -0.062954  -0.012398   0.015172
     3  N    0.140117  -0.086675   6.332991  -0.051578  -0.020998   0.358671
     4  H    0.407410  -0.062954  -0.051578   0.514815  -0.020082   0.009053
     5  H    0.359105  -0.012398  -0.020998  -0.020082   0.510721  -0.008049
     6  O   -0.090301   0.015172   0.358671   0.009053  -0.008049   7.790864
     7  O   -0.097947  -0.003677   0.346885   0.007660  -0.018544  -0.054604
     8  C   -0.085132   0.151852   0.053112  -0.002392   0.008799  -0.007115
     9  H   -0.043228   0.360243  -0.007260   0.005909  -0.006118   0.000112
    10  H   -0.030145   0.382964   0.004122  -0.003369  -0.004152   0.000020
    11  H    0.001754  -0.039565   0.008590  -0.000148  -0.000209  -0.000838
    12  H    0.022819  -0.050977  -0.005963   0.000124  -0.000125   0.000218
    13  H   -0.041125  -0.092306   0.004478   0.006775   0.000552  -0.001699
              7          8          9         10         11         12
     1  C   -0.097947  -0.085132  -0.043228  -0.030145   0.001754   0.022819
     2  C   -0.003677   0.151852   0.360243   0.382964  -0.039565  -0.050977
     3  N    0.346885   0.053112  -0.007260   0.004122   0.008590  -0.005963
     4  H    0.007660  -0.002392   0.005909  -0.003369  -0.000148   0.000124
     5  H   -0.018544   0.008799  -0.006118  -0.004152  -0.000209  -0.000125
     6  O   -0.054604  -0.007115   0.000112   0.000020  -0.000838   0.000218
     7  O    7.978852  -0.023042   0.000949   0.003529   0.004335   0.000632
     8  C   -0.023042   5.156348   0.012968  -0.020682   0.396559   0.407287
     9  H    0.000949   0.012968   0.508209  -0.032125  -0.004731  -0.000753
    10  H    0.003529  -0.020682  -0.032125   0.534002   0.003577  -0.002258
    11  H    0.004335   0.396559  -0.004731   0.003577   0.476916  -0.012033
    12  H    0.000632   0.407287  -0.000753  -0.002258  -0.012033   0.481316
    13  H   -0.002071   0.440159   0.006904  -0.005684  -0.032452  -0.021502
             13
     1  C   -0.041125
     2  C   -0.092306
     3  N    0.004478
     4  H    0.006775
     5  H    0.000552
     6  O   -0.001699
     7  O   -0.002071
     8  C    0.440159
     9  H    0.006904
    10  H   -0.005684
    11  H   -0.032452
    12  H   -0.021502
    13  H    0.624800
 Mulliken atomic charges:
              1
     1  C   -0.303286
     2  C   -0.239070
     3  N   -0.076493
     4  H    0.188776
     5  H    0.211499
     6  O   -0.011503
     7  O   -0.142957
     8  C   -0.488721
     9  H    0.198921
    10  H    0.170201
    11  H    0.198247
    12  H    0.181216
    13  H    0.113170
 Sum of Mulliken atomic charges =  -0.00000
 Mulliken charges with hydrogens summed into heavy atoms:
              1
     1  C    0.096989
     2  C    0.130052
     3  N   -0.076493
     6  O   -0.011503
     7  O   -0.142957
     8  C    0.003912
 Sum of Mulliken charges with hydrogens summed into heavy atoms =  -0.00000
 Electronic spatial extent (au):  <R**2>=           4639.6346
 Charge=             -0.0000 electrons
 Dipole moment (field-independent basis, Debye):
    X=              0.9053    Y=              3.5158    Z=             -2.1994  Tot=              4.2447
 Quadrupole moment (field-independent basis, Debye-Ang):
   XX=            -47.2897   YY=            -40.3093   ZZ=            -41.9805
   XY=            -15.5239   XZ=             13.4777   YZ=              6.0970
 Traceless Quadrupole moment (field-independent basis, Debye-Ang):
   XX=             -4.0966   YY=              2.8839   ZZ=              1.2127
   XY=            -15.5239   XZ=             13.4777   YZ=              6.0970
 Octapole moment (field-independent basis, Debye-Ang**2):
  XXX=            594.1001  YYY=             -2.5025  ZZZ=           -190.7409  XYY=            185.2458
  XXY=             70.1798  XXZ=           -143.0593  XZZ=            200.8452  YZZ=              6.0469
  YYZ=            -69.4065  XYZ=            -28.3653
 Hexadecapole moment (field-independent basis, Debye-Ang**3):
 XXXX=          -5540.5958 YYYY=           -379.6338 ZZZZ=           -750.9955 XXXY=           -404.8710
 XXXZ=           1341.9346 YYYX=            -57.4777 YYYZ=             -8.3582 ZZZX=            899.4689
 ZZZY=             -8.5220 XXYY=           -949.0281 XXZZ=          -1137.4599 YYZZ=           -207.1716
 XXYZ=            137.1389 YYXZ=            324.7563 ZZXY=            -56.5750
 N-N= 2.498417261407D+02 E-N=-1.254770869745D+03  KE= 3.206924931354D+02
 Orbital energies and kinetic energies (alpha):
                                 1                 2
   1         O       -.19342378479974E+02 0.29037310565210E+02
   2         O       -.19317232941417E+02 0.29037990840628E+02
   3         O       -.14705250612958E+02 0.21977228262103E+02
   4         O       -.10371502835044E+02 0.15896714441889E+02
   5         O       -.10324291988873E+02 0.15899143392719E+02
   6         O       -.10318049320837E+02 0.15899779367973E+02
   7         O       -.13090150041081E+01 0.24043607217030E+01
   8         O       -.11380566379134E+01 0.27421055283929E+01
   9         O       -.98195628589715E+00 0.19952588463783E+01
  10         O       -.87847430677004E+00 0.15850998079352E+01
  11         O       -.77486176779571E+00 0.15170773736689E+01
  12         O       -.69662509304632E+00 0.20431347463719E+01
  13         O       -.64849704564751E+00 0.17485515030551E+01
  14         O       -.64788968710592E+00 0.16297883093814E+01
  15         O       -.61218722800633E+00 0.20917483701237E+01
  16         O       -.57091849007848E+00 0.12188126597506E+01
  17         O       -.54428918587769E+00 0.13188014810675E+01
  18         O       -.49969579420476E+00 0.12995817339281E+01
  19         O       -.48918449650458E+00 0.12187203579415E+01
  20         O       -.43559718924663E+00 0.14448239976636E+01
  21         O       -.42744992962876E+00 0.12359117751375E+01
  22         O       -.41082351528572E+00 0.22691249322337E+01
  23         O       -.39872480743920E+00 0.23492135354072E+01
  24         O       -.38533969590657E+00 0.24859640170344E+01
  25         V       -.47887040723473E-01 0.23700030412829E+01
  26         V       0.78639935091683E-02 0.38641247455917E-01
  27         V       0.13804070416054E-01 0.21585432163767E-01
  28         V       0.14207381268528E-01 0.15854454651887E-01
  29         V       0.16849792659704E-01 0.15117645826900E-01
  30         V       0.48145159009032E-01 0.24010906157945E+00
  31         V       0.63835491230083E-01 0.19072203719226E+00
  32         V       0.65962191327065E-01 0.15073691617531E+00
  33         V       0.71449342349987E-01 0.14635288082167E+00
  34         V       0.97315362670971E-01 0.23687436328072E+00
  35         V       0.99584130630164E-01 0.23991617242586E+00
  36         V       0.10705988150534E+00 0.33716682203763E+00
  37         V       0.11969104612092E+00 0.32549102580075E+00
  38         V       0.13063543376779E+00 0.30216778756416E+00
  39         V       0.14183089621348E+00 0.51662645767119E+00
  40         V       0.14763789400496E+00 0.38726739056966E+00
  41         V       0.15076550238066E+00 0.37415486656395E+00
  42         V       0.15977203984629E+00 0.31142645819078E+00
  43         V       0.17060473628339E+00 0.32529078953169E+00
  44         V       0.18282418268638E+00 0.10291219803617E+01
  45         V       0.19969996485006E+00 0.77835349694266E+00
  46         V       0.20586680075088E+00 0.65706495628860E+00
  47         V       0.22378458345792E+00 0.10322701789224E+01
  48         V       0.23907335354563E+00 0.15424888525368E+01
  49         V       0.24565375253337E+00 0.10090717448013E+01
  50         V       0.25832001034695E+00 0.10928896903499E+01
  51         V       0.26232661679969E+00 0.14085651461767E+01
  52         V       0.26407231760327E+00 0.90374891247422E+00
  53         V       0.28106009390769E+00 0.10574792024913E+01
  54         V       0.31032960658855E+00 0.98642247041876E+00
  55         V       0.32133793257971E+00 0.98303935900510E+00
  56         V       0.32652336245524E+00 0.10083666531377E+01
  57         V       0.33803679221991E+00 0.10345717465162E+01
  58         V       0.34401393700218E+00 0.78975806536779E+00
  59         V       0.35458894629328E+00 0.10310413060880E+01
  60         V       0.36895746718000E+00 0.79961325874651E+00
  61         V       0.37356075931800E+00 0.82352265195521E+00
  62         V       0.38749297514479E+00 0.10357624514978E+01
  63         V       0.39644933961638E+00 0.11321435945608E+01
  64         V       0.41391439658255E+00 0.17374252617253E+01
  65         V       0.42922082382554E+00 0.17750121387747E+01
  66         V       0.44296773514890E+00 0.16806140652377E+01
  67         V       0.47220116287553E+00 0.12211047680528E+01
  68         V       0.49899127251467E+00 0.12141452285439E+01
  69         V       0.55525876255705E+00 0.12343274021422E+01
  70         V       0.70065732690572E+00 0.24727955061352E+01
  71         V       0.71833460374711E+00 0.19168018809347E+01
  72         V       0.73243871219982E+00 0.20099913361102E+01
  73         V       0.75244658241924E+00 0.21081604157706E+01
  74         V       0.75842465552372E+00 0.21167338606668E+01
  75         V       0.78981505386792E+00 0.24958938970262E+01
  76         V       0.81279626371937E+00 0.21861122882844E+01
  77         V       0.86474828283159E+00 0.21846927178263E+01
  78         V       0.92809717613321E+00 0.23751544306327E+01
  79         V       0.94293663594984E+00 0.23949516783014E+01
  80         V       0.97928642593757E+00 0.24194074147629E+01
  81         V       0.99971331377055E+00 0.25484044429057E+01
  82         V       0.10589422183730E+01 0.25879220611037E+01
  83         V       0.10712195162678E+01 0.24350795764160E+01
  84         V       0.10885589087763E+01 0.23184105933008E+01
  85         V       0.11317746032931E+01 0.26037206716915E+01
  86         V       0.11449181019784E+01 0.24682076809630E+01
  87         V       0.11875926431031E+01 0.26781321987011E+01
  88         V       0.12022203350830E+01 0.25042488068239E+01
  89         V       0.12330036205204E+01 0.27758427727351E+01
  90         V       0.12572027514398E+01 0.33410496606159E+01
  91         V       0.12957518416642E+01 0.30597411247238E+01
  92         V       0.13194740210106E+01 0.25116240716052E+01
  93         V       0.13266208079684E+01 0.31682736953508E+01
  94         V       0.13479483122633E+01 0.29256610217772E+01
  95         V       0.13533636019135E+01 0.32815053601734E+01
  96         V       0.13880874293670E+01 0.29955609185352E+01
  97         V       0.14089903649228E+01 0.27208558079102E+01
  98         V       0.14584065767767E+01 0.25710026383053E+01
  99         V       0.14927784128126E+01 0.26257587510655E+01
 100         V       0.15611709811308E+01 0.25772109455440E+01
 101         V       0.15686984555217E+01 0.27261036303187E+01
 102         V       0.16622407242060E+01 0.27615341692711E+01
 103         V       0.17380134718743E+01 0.27649202823949E+01
 104         V       0.17787963500121E+01 0.28370694573989E+01
 105         V       0.18011301122191E+01 0.29950351486315E+01
 106         V       0.18280035146138E+01 0.29620830132456E+01
 107         V       0.18559949422207E+01 0.29108999428001E+01
 108         V       0.18804245349128E+01 0.28767697562143E+01
 109         V       0.19254799532367E+01 0.32081884723919E+01
 110         V       0.19333835139775E+01 0.29933346837873E+01
 111         V       0.19573605513605E+01 0.30963141050179E+01
 112         V       0.19975568334944E+01 0.29506868672848E+01
 113         V       0.20147947107576E+01 0.33537276133765E+01
 114         V       0.20442071645713E+01 0.33971045679481E+01
 115         V       0.20630073138171E+01 0.31045061341038E+01
 116         V       0.20776105650711E+01 0.32609911215775E+01
 117         V       0.21382024548289E+01 0.33389773555462E+01
 118         V       0.21508748471412E+01 0.33162397616923E+01
 119         V       0.21751637276633E+01 0.34430537961652E+01
 120         V       0.22595015766084E+01 0.35225698756823E+01
 121         V       0.22878498155637E+01 0.33120831994530E+01
 122         V       0.23352378579194E+01 0.33564680912118E+01
 123         V       0.23481218293182E+01 0.34927329161254E+01
 124         V       0.23550156678907E+01 0.34903167901000E+01
 125         V       0.24240275994185E+01 0.34018012917784E+01
 126         V       0.24392482974251E+01 0.36171063377909E+01
 127         V       0.24938553427969E+01 0.37018529271734E+01
 128         V       0.25194310113933E+01 0.35472888668312E+01
 129         V       0.25416729675357E+01 0.35548274084876E+01
 130         V       0.25749682303681E+01 0.38275297113816E+01
 131         V       0.26321185870829E+01 0.36367403216755E+01
 132         V       0.26484660919709E+01 0.38601409623972E+01
 133         V       0.27290753391108E+01 0.39596237889721E+01
 134         V       0.27597854659671E+01 0.38288595803345E+01
 135         V       0.27993553351794E+01 0.38211193520782E+01
 136         V       0.28291488533360E+01 0.39221360062109E+01
 137         V       0.29084782971980E+01 0.40475800646477E+01
 138         V       0.29419736049023E+01 0.39453380510727E+01
 139         V       0.29723954029203E+01 0.43356693743460E+01
 140         V       0.30110844466632E+01 0.42098241231610E+01
 141         V       0.30440902323588E+01 0.47883031775099E+01
 142         V       0.30784765292152E+01 0.47159580141874E+01
 143         V       0.31272521564921E+01 0.42730011947330E+01
 144         V       0.32156962593798E+01 0.44796226985458E+01
 145         V       0.32447371259489E+01 0.48326637662210E+01
 146         V       0.33295402816994E+01 0.47678851336911E+01
 147         V       0.35577025509231E+01 0.52538146907629E+01
 148         V       0.35804553160686E+01 0.53206039941157E+01
 149         V       0.36199192937404E+01 0.54422921376669E+01
 150         V       0.36935199580851E+01 0.54381058696553E+01
 151         V       0.38256433628095E+01 0.57370861356898E+01
 152         V       0.42416441664963E+01 0.10442080924367E+02
 153         V       0.44156942093637E+01 0.11418174186430E+02
 154         V       0.44752678790387E+01 0.10045586853152E+02
 155         V       0.46613641060187E+01 0.10711704554990E+02
 156         V       0.47066505121217E+01 0.12067427387286E+02
 157         V       0.47588340571607E+01 0.10532064673611E+02
 Total kinetic energy from orbitals= 3.206924931354D+02
 No NMR shielding tensors so no spin-rotation constants.
 Leave Link  601 at Thu Oct 13 23:37:06 2022, MaxMem= 3276800000 cpu:       2.3
 (Enter /local/g09-source/g09/l9999.exe)

 Test job not archived.
 1\1\GINC-WUX36\SP\RwB97XD\Gen\C3H7N1O2\ISSLERK\13-Oct-2022\0\\#p wB97X
 D/GEN 6D Iop(6/7=3) Iop(9/40=14) scf(maxcyc=200,conver=8) nosym Guess(
 Read,TCheck) GFInput\\Comment\\0,1\C,0,-4.958591314,0.310098853,0.8694
 39572\C,0,-3.607396994,1.076558765,0.982612044\N,0,-5.154621254,-0.730
 290326,1.660212398\H,0,-5.752480105,1.009518463,0.906991288\H,0,-4.801
 235183,-0.138463082,-0.204218355\O,0,-6.234045992,-0.988638035,2.29394
 249\O,0,-4.117812302,-1.545533636,1.562068414\C,0,-3.480739592,1.71130
 5482,2.445165236\H,0,-2.94029916,0.367790762,0.747248706\H,0,-3.608026
 207,1.773129708,0.186569685\H,0,-3.536082302,0.955652996,3.137001089\H
 ,0,-2.810077656,2.492847187,2.448324471\H,0,-4.643781631,2.130120215,2
 .341083478\\Version=EM64L-G09RevA.02\HF=-323.4708079\RMSD=7.401e-09\Di
 pole=0.3561717,1.3832081,-0.8652932\Quadrupole=-3.0456897,2.1440789,0.
 9016108,-11.541611,10.0203058,4.5329613\PG=C01 [X(C3H7N1O2)]\\@


 Statistics are no substitute for judgment.
                            -- Henry Clay
 Job cpu time:  0 days  0 hours  4 minutes  8.2 seconds.
 File lengths (MBytes):  RWF=     19 Int=      0 D2E=      0 Chk=      2 Scr=      1
 Normal termination of Gaussian 09 at Thu Oct 13 23:37:06 2022.
