 Entering Gaussian System, Link 0=g09
 Initial command:
 /local/g09-source/g09/l1.exe /scratch/1234596/TRAJ_33/Gau-30257.inp -scrdir=/scratch/1234596/TRAJ_33/
 Entering Link 1 = /local/g09-source/g09/l1.exe PID=     30259.
  
 Copyright (c) 1988,1990,1992,1993,1995,1998,2003,2009, Gaussian, Inc.
                  All Rights Reserved.
  
 This is part of the Gaussian(R) 09 program.  It is based on
 the Gaussian(R) 03 system (copyright 2003, Gaussian, Inc.),
 the Gaussian(R) 98 system (copyright 1998, Gaussian, Inc.),
 the Gaussian(R) 94 system (copyright 1995, Gaussian, Inc.),
 the Gaussian 92(TM) system (copyright 1992, Gaussian, Inc.),
 the Gaussian 90(TM) system (copyright 1990, Gaussian, Inc.),
 the Gaussian 88(TM) system (copyright 1988, Gaussian, Inc.),
 the Gaussian 86(TM) system (copyright 1986, Carnegie Mellon
 University), and the Gaussian 82(TM) system (copyright 1983,
 Carnegie Mellon University). Gaussian is a federally registered
 trademark of Gaussian, Inc.
  
 This software contains proprietary and confidential information,
 including trade secrets, belonging to Gaussian, Inc.
  
 This software is provided under written license and may be
 used, copied, transmitted, or stored only in accord with that
 written license.
  
 The following legend is applicable only to US Government
 contracts under FAR:
  
                    RESTRICTED RIGHTS LEGEND
  
 Use, reproduction and disclosure by the US Government is
 subject to restrictions as set forth in subparagraphs (a)
 and (c) of the Commercial Computer Software - Restricted
 Rights clause in FAR 52.227-19.
  
 Gaussian, Inc.
 340 Quinnipiac St., Bldg. 40, Wallingford CT 06492
  
  
 ---------------------------------------------------------------
 Warning -- This program may not be used in any manner that
 competes with the business of Gaussian, Inc. or will provide
 assistance to any competitor of Gaussian, Inc.  The licensee
 of this program is prohibited from giving any competitor of
 Gaussian, Inc. access to this program.  By using this program,
 the user acknowledges that Gaussian, Inc. is engaged in the
 business of creating and licensing software in the field of
 computational chemistry and represents and warrants to the
 licensee that it is not a competitor of Gaussian, Inc. and that
 it will not use this program in any manner prohibited above.
 ---------------------------------------------------------------
  

 Cite this work as:
 Gaussian 09, Revision A.02,
 M. J. Frisch, G. W. Trucks, H. B. Schlegel, G. E. Scuseria, 
 M. A. Robb, J. R. Cheeseman, G. Scalmani, V. Barone, B. Mennucci, 
 G. A. Petersson, H. Nakatsuji, M. Caricato, X. Li, H. P. Hratchian, 
 A. F. Izmaylov, J. Bloino, G. Zheng, J. L. Sonnenberg, M. Hada, 
 M. Ehara, K. Toyota, R. Fukuda, J. Hasegawa, M. Ishida, T. Nakajima, 
 Y. Honda, O. Kitao, H. Nakai, T. Vreven, J. A. Montgomery, Jr., 
 J. E. Peralta, F. Ogliaro, M. Bearpark, J. J. Heyd, E. Brothers, 
 K. N. Kudin, V. N. Staroverov, R. Kobayashi, J. Normand, 
 K. Raghavachari, A. Rendell, J. C. Burant, S. S. Iyengar, J. Tomasi, 
 M. Cossi, N. Rega, J. M. Millam, M. Klene, J. E. Knox, J. B. Cross, 
 V. Bakken, C. Adamo, J. Jaramillo, R. Gomperts, R. E. Stratmann, 
 O. Yazyev, A. J. Austin, R. Cammi, C. Pomelli, J. W. Ochterski, 
 R. L. Martin, K. Morokuma, V. G. Zakrzewski, G. A. Voth, 
 P. Salvador, J. J. Dannenberg, S. Dapprich, A. D. Daniels, 
 O. Farkas, J. B. Foresman, J. V. Ortiz, J. Cioslowski, 
 and D. J. Fox, Gaussian, Inc., Wallingford CT, 2009.
 
 ******************************************
 Gaussian 09:  EM64L-G09RevA.02 11-Jun-2009
                13-Oct-2022 
 ******************************************
 %Chk=neu.chk
 %Nproc=10
 Will use up to   10 processors via shared memory.
 %Mem=25000Mb
 ----------------------------------------------------------------------
 #p wB97XD/GEN 6D Iop(6/7=3) Iop(9/40=14) scf(maxcyc=200,conver=8) nosy
 m Guess(Read,TCheck) GFInput
 ----------------------------------------------------------------------
 1/38=1/1;
 2/12=2,15=1,17=6,18=5,40=1/2;
 3/5=7,8=2,11=2,16=1,24=10,25=1,30=1,74=-58/1,2,3;
 4/5=102/1;
 5/5=2,6=8,7=200/2;
 6/7=3,8=2,9=2,10=2,28=1/1;
 99/5=1,9=1/99;
 Leave Link    1 at Thu Oct 13 23:29:39 2022, MaxMem= 3276800000 cpu:       0.6
 (Enter /local/g09-source/g09/l101.exe)
 -------
 Comment
 -------
 Symbolic Z-matrix:
 Charge =  0 Multiplicity = 1
 C                    -4.95769   0.30893   0.87298 
 C                    -3.60831   1.07641   0.98295 
 N                    -5.1549   -0.73126   1.65766 
 H                    -5.75725   1.01627   0.90198 
 H                    -4.8086   -0.13833  -0.2152 
 O                    -6.23491  -0.98764   2.29396 
 O                    -4.11619  -1.54596   1.56197 
 C                    -3.48161   1.71273   2.4455 
 H                    -2.95193   0.3638    0.7522 
 H                    -3.60467   1.76833   0.19271 
 H                    -3.52717   0.95514   3.13445 
 H                    -2.80305   2.49733   2.44515 
 H                    -4.63702   2.13107   2.33825 
 
 NAtoms=     13 NQM=     13 NQMF=      0 NMic=      0 NMicF=      0 NTot=     13.
                    Isotopes and Nuclear Properties:
 (Nuclear quadrupole moments (NQMom) in fm**2, nuclear magnetic moments (NMagM)
  in nuclear magnetons)

  Atom         1           2           3           4           5           6           7           8           9          10
 IAtWgt=          12          12          14           1           1          16          16          12           1           1
 AtmWgt=  12.0000000  12.0000000  14.0030740   1.0078250   1.0078250  15.9949146  15.9949146  12.0000000   1.0078250   1.0078250
 NucSpn=           0           0           2           1           1           0           0           0           1           1
 AtZEff=   0.0000000   0.0000000   0.0000000   0.0000000   0.0000000   0.0000000   0.0000000   0.0000000   0.0000000   0.0000000
 NQMom=    0.0000000   0.0000000   2.0440000   0.0000000   0.0000000   0.0000000   0.0000000   0.0000000   0.0000000   0.0000000
 NMagM=    0.0000000   0.0000000   0.4037610   2.7928460   2.7928460   0.0000000   0.0000000   0.0000000   2.7928460   2.7928460

  Atom        11          12          13
 IAtWgt=           1           1           1
 AtmWgt=   1.0078250   1.0078250   1.0078250
 NucSpn=           1           1           1
 AtZEff=   0.0000000   0.0000000   0.0000000
 NQMom=    0.0000000   0.0000000   0.0000000
 NMagM=    2.7928460   2.7928460   2.7928460
 Leave Link  101 at Thu Oct 13 23:29:39 2022, MaxMem= 3276800000 cpu:       0.9
 (Enter /local/g09-source/g09/l202.exe)
                          Input orientation:                          
 ---------------------------------------------------------------------
 Center     Atomic      Atomic             Coordinates (Angstroms)
 Number     Number       Type             X           Y           Z
 ---------------------------------------------------------------------
      1          6           0       -4.957694    0.308934    0.872985
      2          6           0       -3.608305    1.076412    0.982950
      3          7           0       -5.154897   -0.731256    1.657660
      4          1           0       -5.757245    1.016269    0.901983
      5          1           0       -4.808602   -0.138330   -0.215205
      6          8           0       -6.234913   -0.987643    2.293958
      7          8           0       -4.116188   -1.545960    1.561972
      8          6           0       -3.481606    1.712735    2.445498
      9          1           0       -2.951933    0.363797    0.752199
     10          1           0       -3.604674    1.768329    0.192706
     11          1           0       -3.527169    0.955145    3.134447
     12          1           0       -2.803053    2.497333    2.445154
     13          1           0       -4.637022    2.131069    2.338246
 ---------------------------------------------------------------------
                    Distance matrix (angstroms):
                    1          2          3          4          5
     1  C    0.000000
     2  C    1.556267   0.000000
     3  N    1.317801   2.472821   0.000000
     4  H    1.067917   2.151306   1.996927   0.000000
     5  H    1.185930   2.086117   1.994769   1.865779   0.000000
     6  O    2.309017   3.588612   1.279470   2.486247   3.008586
     7  O    2.150225   2.733139   1.323562   3.113467   2.370489
     8  C    2.573381   1.600002   3.064912   2.836554   3.502385
     9  H    2.010143   0.995937   2.621460   2.884082   2.152956
    10  H    2.103159   1.050356   3.285911   2.387934   2.291546
    11  H    2.752853   2.156438   2.770261   3.156085   3.749390
    12  H    3.450114   2.192142   4.071253   3.647215   4.248112
    13  H    2.360085   2.001846   2.987357   2.135541   3.420486
                    6          7          8          9         10
     6  O    0.000000
     7  O    2.310090   0.000000
     8  C    3.859495   3.435463   0.000000
     9  H    3.870577   2.378738   2.228778   0.000000
    10  H    4.350723   3.622299   2.256836   1.646759   0.000000
    11  H    3.436965   3.012499   1.025021   2.521050   3.053050
    12  H    4.893422   4.341953   1.037318   2.727680   2.499513
    13  H    3.504509   3.793998   1.233488   2.911756   2.408456
                   11         12         13
    11  H    0.000000
    12  H    1.837882   0.000000
    13  H    1.802362   1.873237   0.000000
 Symmetry turned off by external request.
 Stoichiometry    C3H7NO2
 Framework group  C1[X(C3H7NO2)]
 Deg. of freedom    33
 Full point group                 C1      NOp   1
 Rotational constants (GHZ):      6.2196159      2.4690114      2.2883013
 Leave Link  202 at Thu Oct 13 23:29:39 2022, MaxMem= 3276800000 cpu:       0.1
 (Enter /local/g09-source/g09/l301.exe)
 General basis read from cards:  (6D, 7F)
 Centers:   4  5  9 10 11 12 13
 S 3 1.0
     Exponent=  1.8731136960D+01 Coefficients=  3.3494604000D-02
     Exponent=  2.8253943650D+00 Coefficients=  2.3472695400D-01
     Exponent=  6.4012169200D-01 Coefficients=  8.1375732600D-01
 S 1 1.0
     Exponent=  1.6127775900D-01 Coefficients=  1.0000000000D+00
 P 1 1.0
     Exponent=  1.1000000000D+00 Coefficients=  1.0000000000D+00
 ****
 Centers:   1  2  8
 S 6 1.0
     Exponent=  3.0475248800D+03 Coefficients=  1.8347370000D-03
     Exponent=  4.5736951800D+02 Coefficients=  1.4037323000D-02
     Exponent=  1.0394868500D+02 Coefficients=  6.8842622000D-02
     Exponent=  2.9210155300D+01 Coefficients=  2.3218444300D-01
     Exponent=  9.2866629600D+00 Coefficients=  4.6794134800D-01
     Exponent=  3.1639269600D+00 Coefficients=  3.6231198500D-01
 S 3 1.0
     Exponent=  7.8682723500D+00 Coefficients= -1.1933242000D-01
     Exponent=  1.8812885400D+00 Coefficients= -1.6085415200D-01
     Exponent=  5.4424925800D-01 Coefficients=  1.1434564380D+00
 S 1 1.0
     Exponent=  1.6871447800D-01 Coefficients=  1.0000000000D+00
 S 1 1.0
     Exponent=  4.3800000000D-02 Coefficients=  1.0000000000D+00
 P 3 1.0
     Exponent=  7.8682723500D+00 Coefficients=  6.8999067000D-02
     Exponent=  1.8812885400D+00 Coefficients=  3.1642396100D-01
     Exponent=  5.4424925800D-01 Coefficients=  7.4430829100D-01
 P 1 1.0
     Exponent=  1.6871447800D-01 Coefficients=  1.0000000000D+00
 P 1 1.0
     Exponent=  4.3800000000D-02 Coefficients=  1.0000000000D+00
 D 1 1.0
     Exponent=  8.0000000000D-01 Coefficients=  1.0000000000D+00
 ****
 Centers:   3
 S 6 1.0
     Exponent=  4.1735114600D+03 Coefficients=  1.8347720000D-03
     Exponent=  6.2745791100D+02 Coefficients=  1.3994627000D-02
     Exponent=  1.4290209300D+02 Coefficients=  6.8586552000D-02
     Exponent=  4.0234329300D+01 Coefficients=  2.3224087300D-01
     Exponent=  1.2820212900D+01 Coefficients=  4.6906994800D-01
     Exponent=  4.3904370100D+00 Coefficients=  3.6045519900D-01
 S 3 1.0
     Exponent=  1.1626361860D+01 Coefficients= -1.1496118200D-01
     Exponent=  2.7162798070D+00 Coefficients= -1.6911747900D-01
     Exponent=  7.7221839700D-01 Coefficients=  1.1458519470D+00
 S 1 1.0
     Exponent=  2.1203149700D-01 Coefficients=  1.0000000000D+00
 S 1 1.0
     Exponent=  6.3900000000D-02 Coefficients=  1.0000000000D+00
 S 1 1.0
     Exponent=  1.8257143000D-02 Coefficients=  1.0000000000D+00
 S 1 1.0
     Exponent=  5.2163270000D-03 Coefficients=  1.0000000000D+00
 P 3 1.0
     Exponent=  1.1626361860D+01 Coefficients=  6.7579744000D-02
     Exponent=  2.7162798070D+00 Coefficients=  3.2390729600D-01
     Exponent=  7.7221839700D-01 Coefficients=  7.4089514000D-01
 P 1 1.0
     Exponent=  2.1203149700D-01 Coefficients=  1.0000000000D+00
 P 1 1.0
     Exponent=  6.3900000000D-02 Coefficients=  1.0000000000D+00
 P 1 1.0
     Exponent=  1.8257143000D-02 Coefficients=  1.0000000000D+00
 P 1 1.0
     Exponent=  5.2163270000D-03 Coefficients=  1.0000000000D+00
 D 1 1.0
     Exponent=  8.0000000000D-01 Coefficients=  1.0000000000D+00
 ****
 Centers:   6  7
 S 6 1.0
     Exponent=  5.4846716600D+03 Coefficients=  1.8310740000D-03
     Exponent=  8.2523494600D+02 Coefficients=  1.3950172000D-02
     Exponent=  1.8804695800D+02 Coefficients=  6.8445078000D-02
     Exponent=  5.2964500000D+01 Coefficients=  2.3271433600D-01
     Exponent=  1.6897570400D+01 Coefficients=  4.7019289800D-01
     Exponent=  5.7996353400D+00 Coefficients=  3.5852085300D-01
 S 3 1.0
     Exponent=  1.5539616250D+01 Coefficients= -1.1077755000D-01
     Exponent=  3.5999335860D+00 Coefficients= -1.4802626300D-01
     Exponent=  1.0137617500D+00 Coefficients=  1.1307670150D+00
 S 1 1.0
     Exponent=  2.7000582300D-01 Coefficients=  1.0000000000D+00
 S 1 1.0
     Exponent=  8.4500000000D-02 Coefficients=  1.0000000000D+00
 P 3 1.0
     Exponent=  1.5539616250D+01 Coefficients=  7.0874268000D-02
     Exponent=  3.5999335860D+00 Coefficients=  3.3975283900D-01
     Exponent=  1.0137617500D+00 Coefficients=  7.2715857700D-01
 P 1 1.0
     Exponent=  2.7000582300D-01 Coefficients=  1.0000000000D+00
 P 1 1.0
     Exponent=  8.4500000000D-02 Coefficients=  1.0000000000D+00
 D 1 1.0
     Exponent=  8.0000000000D-01 Coefficients=  1.0000000000D+00
 ****
 Ernie: Thresh=  0.10000D-02 Tol=  0.10000D-05 Strict=F.
 AO basis set in the form of general basis input (Overlap normalization):
      1 0
 S   6 1.00       0.000000000000
      0.3047524880D+04  0.1834737002D-02
      0.4573695180D+03  0.1403732301D-01
      0.1039486850D+03  0.6884262207D-01
      0.2921015530D+02  0.2321844432D+00
      0.9286662960D+01  0.4679413485D+00
      0.3163926960D+01  0.3623119854D+00
 S   3 1.00       0.000000000000
      0.7868272350D+01 -0.1193324200D+00
      0.1881288540D+01 -0.1608541520D+00
      0.5442492580D+00  0.1143456438D+01
 S   1 1.00       0.000000000000
      0.1687144780D+00  0.1000000000D+01
 S   1 1.00       0.000000000000
      0.4380000000D-01  0.1000000000D+01
 P   3 1.00       0.000000000000
      0.7868272350D+01  0.6899906698D-01
      0.1881288540D+01  0.3164239609D+00
      0.5442492580D+00  0.7443082908D+00
 P   1 1.00       0.000000000000
      0.1687144780D+00  0.1000000000D+01
 P   1 1.00       0.000000000000
      0.4380000000D-01  0.1000000000D+01
 D   1 1.00       0.000000000000
      0.8000000000D+00  0.1000000000D+01
 ****
      2 0
 S   6 1.00       0.000000000000
      0.3047524880D+04  0.1834737002D-02
      0.4573695180D+03  0.1403732301D-01
      0.1039486850D+03  0.6884262207D-01
      0.2921015530D+02  0.2321844432D+00
      0.9286662960D+01  0.4679413485D+00
      0.3163926960D+01  0.3623119854D+00
 S   3 1.00       0.000000000000
      0.7868272350D+01 -0.1193324200D+00
      0.1881288540D+01 -0.1608541520D+00
      0.5442492580D+00  0.1143456438D+01
 S   1 1.00       0.000000000000
      0.1687144780D+00  0.1000000000D+01
 S   1 1.00       0.000000000000
      0.4380000000D-01  0.1000000000D+01
 P   3 1.00       0.000000000000
      0.7868272350D+01  0.6899906698D-01
      0.1881288540D+01  0.3164239609D+00
      0.5442492580D+00  0.7443082908D+00
 P   1 1.00       0.000000000000
      0.1687144780D+00  0.1000000000D+01
 P   1 1.00       0.000000000000
      0.4380000000D-01  0.1000000000D+01
 D   1 1.00       0.000000000000
      0.8000000000D+00  0.1000000000D+01
 ****
      3 0
 S   6 1.00       0.000000000000
      0.4173511460D+04  0.1834772000D-02
      0.6274579110D+03  0.1399462700D-01
      0.1429020930D+03  0.6858655201D-01
      0.4023432930D+02  0.2322408730D+00
      0.1282021290D+02  0.4690699480D+00
      0.4390437010D+01  0.3604551990D+00
 S   3 1.00       0.000000000000
      0.1162636186D+02 -0.1149611820D+00
      0.2716279807D+01 -0.1691174791D+00
      0.7722183970D+00  0.1145851947D+01
 S   1 1.00       0.000000000000
      0.2120314970D+00  0.1000000000D+01
 S   1 1.00       0.000000000000
      0.6390000000D-01  0.1000000000D+01
 S   1 1.00       0.000000000000
      0.1825714300D-01  0.1000000000D+01
 S   1 1.00       0.000000000000
      0.5216327000D-02  0.1000000000D+01
 P   3 1.00       0.000000000000
      0.1162636186D+02  0.6757974397D-01
      0.2716279807D+01  0.3239072959D+00
      0.7722183970D+00  0.7408951397D+00
 P   1 1.00       0.000000000000
      0.2120314970D+00  0.1000000000D+01
 P   1 1.00       0.000000000000
      0.6390000000D-01  0.1000000000D+01
 P   1 1.00       0.000000000000
      0.1825714300D-01  0.1000000000D+01
 P   1 1.00       0.000000000000
      0.5216327000D-02  0.1000000000D+01
 D   1 1.00       0.000000000000
      0.8000000000D+00  0.1000000000D+01
 ****
      4 0
 S   3 1.00       0.000000000000
      0.1873113696D+02  0.3349460400D-01
      0.2825394365D+01  0.2347269540D+00
      0.6401216920D+00  0.8137573259D+00
 S   1 1.00       0.000000000000
      0.1612777590D+00  0.1000000000D+01
 P   1 1.00       0.000000000000
      0.1100000000D+01  0.1000000000D+01
 ****
      5 0
 S   3 1.00       0.000000000000
      0.1873113696D+02  0.3349460400D-01
      0.2825394365D+01  0.2347269540D+00
      0.6401216920D+00  0.8137573259D+00
 S   1 1.00       0.000000000000
      0.1612777590D+00  0.1000000000D+01
 P   1 1.00       0.000000000000
      0.1100000000D+01  0.1000000000D+01
 ****
      6 0
 S   6 1.00       0.000000000000
      0.5484671660D+04  0.1831074000D-02
      0.8252349460D+03  0.1395017200D-01
      0.1880469580D+03  0.6844507801D-01
      0.5296450000D+02  0.2327143360D+00
      0.1689757040D+02  0.4701928980D+00
      0.5799635340D+01  0.3585208530D+00
 S   3 1.00       0.000000000000
      0.1553961625D+02 -0.1107775501D+00
      0.3599933586D+01 -0.1480262631D+00
      0.1013761750D+01  0.1130767016D+01
 S   1 1.00       0.000000000000
      0.2700058230D+00  0.1000000000D+01
 S   1 1.00       0.000000000000
      0.8450000000D-01  0.1000000000D+01
 P   3 1.00       0.000000000000
      0.1553961625D+02  0.7087426804D-01
      0.3599933586D+01  0.3397528392D+00
      0.1013761750D+01  0.7271585774D+00
 P   1 1.00       0.000000000000
      0.2700058230D+00  0.1000000000D+01
 P   1 1.00       0.000000000000
      0.8450000000D-01  0.1000000000D+01
 D   1 1.00       0.000000000000
      0.8000000000D+00  0.1000000000D+01
 ****
      7 0
 S   6 1.00       0.000000000000
      0.5484671660D+04  0.1831074000D-02
      0.8252349460D+03  0.1395017200D-01
      0.1880469580D+03  0.6844507801D-01
      0.5296450000D+02  0.2327143360D+00
      0.1689757040D+02  0.4701928980D+00
      0.5799635340D+01  0.3585208530D+00
 S   3 1.00       0.000000000000
      0.1553961625D+02 -0.1107775501D+00
      0.3599933586D+01 -0.1480262631D+00
      0.1013761750D+01  0.1130767016D+01
 S   1 1.00       0.000000000000
      0.2700058230D+00  0.1000000000D+01
 S   1 1.00       0.000000000000
      0.8450000000D-01  0.1000000000D+01
 P   3 1.00       0.000000000000
      0.1553961625D+02  0.7087426804D-01
      0.3599933586D+01  0.3397528392D+00
      0.1013761750D+01  0.7271585774D+00
 P   1 1.00       0.000000000000
      0.2700058230D+00  0.1000000000D+01
 P   1 1.00       0.000000000000
      0.8450000000D-01  0.1000000000D+01
 D   1 1.00       0.000000000000
      0.8000000000D+00  0.1000000000D+01
 ****
      8 0
 S   6 1.00       0.000000000000
      0.3047524880D+04  0.1834737002D-02
      0.4573695180D+03  0.1403732301D-01
      0.1039486850D+03  0.6884262207D-01
      0.2921015530D+02  0.2321844432D+00
      0.9286662960D+01  0.4679413485D+00
      0.3163926960D+01  0.3623119854D+00
 S   3 1.00       0.000000000000
      0.7868272350D+01 -0.1193324200D+00
      0.1881288540D+01 -0.1608541520D+00
      0.5442492580D+00  0.1143456438D+01
 S   1 1.00       0.000000000000
      0.1687144780D+00  0.1000000000D+01
 S   1 1.00       0.000000000000
      0.4380000000D-01  0.1000000000D+01
 P   3 1.00       0.000000000000
      0.7868272350D+01  0.6899906698D-01
      0.1881288540D+01  0.3164239609D+00
      0.5442492580D+00  0.7443082908D+00
 P   1 1.00       0.000000000000
      0.1687144780D+00  0.1000000000D+01
 P   1 1.00       0.000000000000
      0.4380000000D-01  0.1000000000D+01
 D   1 1.00       0.000000000000
      0.8000000000D+00  0.1000000000D+01
 ****
      9 0
 S   3 1.00       0.000000000000
      0.1873113696D+02  0.3349460400D-01
      0.2825394365D+01  0.2347269540D+00
      0.6401216920D+00  0.8137573259D+00
 S   1 1.00       0.000000000000
      0.1612777590D+00  0.1000000000D+01
 P   1 1.00       0.000000000000
      0.1100000000D+01  0.1000000000D+01
 ****
     10 0
 S   3 1.00       0.000000000000
      0.1873113696D+02  0.3349460400D-01
      0.2825394365D+01  0.2347269540D+00
      0.6401216920D+00  0.8137573259D+00
 S   1 1.00       0.000000000000
      0.1612777590D+00  0.1000000000D+01
 P   1 1.00       0.000000000000
      0.1100000000D+01  0.1000000000D+01
 ****
     11 0
 S   3 1.00       0.000000000000
      0.1873113696D+02  0.3349460400D-01
      0.2825394365D+01  0.2347269540D+00
      0.6401216920D+00  0.8137573259D+00
 S   1 1.00       0.000000000000
      0.1612777590D+00  0.1000000000D+01
 P   1 1.00       0.000000000000
      0.1100000000D+01  0.1000000000D+01
 ****
     12 0
 S   3 1.00       0.000000000000
      0.1873113696D+02  0.3349460400D-01
      0.2825394365D+01  0.2347269540D+00
      0.6401216920D+00  0.8137573259D+00
 S   1 1.00       0.000000000000
      0.1612777590D+00  0.1000000000D+01
 P   1 1.00       0.000000000000
      0.1100000000D+01  0.1000000000D+01
 ****
     13 0
 S   3 1.00       0.000000000000
      0.1873113696D+02  0.3349460400D-01
      0.2825394365D+01  0.2347269540D+00
      0.6401216920D+00  0.8137573259D+00
 S   1 1.00       0.000000000000
      0.1612777590D+00  0.1000000000D+01
 P   1 1.00       0.000000000000
      0.1100000000D+01  0.1000000000D+01
 ****

 Integral buffers will be    131072 words long.
 Raffenetti 2 integral format.
 Two-electron integral symmetry is turned off.
   157 basis functions,   249 primitive gaussians,   157 cartesian basis functions
    24 alpha electrons       24 beta electrons
       nuclear repulsion energy       249.8236358198 Hartrees.
 IExCor= 4639 DFT=T Ex+Corr=wB97XD ExCW=0 ScaHFX=  1.000000
 ScaDFX=  1.000000  1.000000  1.000000  1.000000 ScalE2=  1.000000  1.000000
 IRadAn=      0 IRanWt=     -1 IRanGd=            0 ICorTp=0
  HFx wShort=  0.000000 wLong=  0.200000 cFull=  0.222036 cShort=  0.000000 cLong=  0.777964
  DFx wShort=  0.000000 wLong=  0.200000 cFull=  0.000000 cShort=  0.000000 cLong=  1.000000
 NAtoms=   13 NActive=   13 NUniq=   13 SFac= 7.50D-01 NAtFMM=   80 NAOKFM=F Big=F
 R6Disp: Dispersion energy =        -0.0059193656 Hartrees.
 Nuclear repulsion after empirical dispersion term =      249.8177164542 Hartrees.
 Leave Link  301 at Thu Oct 13 23:29:39 2022, MaxMem= 3276800000 cpu:       0.5
 (Enter /local/g09-source/g09/l302.exe)
 NPDir=0 NMtPBC=     1 NCelOv=     1 NCel=       1 NClECP=     1 NCelD=      1
         NCelK=      1 NCelE2=     1 NClLst=     1 CellRange=     0.0.
 One-electron integrals computed using PRISM.
 NBasis=   157 RedAO= T  NBF=   157
 NBsUse=   157 1.00D-06 NBFU=   157
 Precomputing XC quadrature grid using
 IXCGrd= 2 IRadAn=           0 IRanWt=          -1 IRanGd=           0 AccXCQ= 1.00D-10.
 NRdTot=     881 NPtTot=      113336 NUsed=      119685 NTot=      119717
 NSgBfM=   157   157   157   157   157 NAtAll=    13    13.
 Leave Link  302 at Thu Oct 13 23:29:39 2022, MaxMem= 3276800000 cpu:       2.2
 (Enter /local/g09-source/g09/l303.exe)
 DipDrv:  MaxL=1.
 Leave Link  303 at Thu Oct 13 23:29:39 2022, MaxMem= 3276800000 cpu:       0.4
 (Enter /local/g09-source/g09/l401.exe)
 Initial guess read from the checkpoint file:  neu.chk
 B after Tr=     0.000647    0.001829    0.002280
         Rot=    1.000000    0.000014    0.000118   -0.000114 Ang=   0.02 deg.
 Guess basis will be translated and rotated to current coordinates.
 Leave Link  401 at Thu Oct 13 23:29:39 2022, MaxMem= 3276800000 cpu:       1.3
 (Enter /local/g09-source/g09/l502.exe)
 Closed shell SCF:
 Requested convergence on RMS density matrix=1.00D-08 within 200 cycles.
 Requested convergence on MAX density matrix=1.00D-06.
 Requested convergence on             energy=1.00D-06.
 No special actions if energy rises.
 Using DIIS extrapolation, IDIIS=  1040.
 Two-electron integral symmetry not used.
       119555 words used for storage of precomputed grid.
 IEnd=      238162 IEndB=      238162 NGot=  3276800000 MDV=  3276627045
 LenX=  3276627045 LenY=  3276601955
 Fock matrices will be formed incrementally for  20 cycles.

 Cycle   1  Pass 1  IDiag  1:
 FoFJK:  IHMeth= 1 ICntrl=     0 DoSepK=T KAlg= 1 I1Cent= 0 FoldK=F
 FoFCou: FMM=F IPFlag=           0 FMFlag=      100000 FMFlg1=           0
         NFxFlg=           0 DoJE=T BraDBF=F KetDBF=F FulRan=T
         Omega=  0.000000  0.000000  1.000000  0.000000  0.000000 ICntrl=     500 IOpCl=  0
         NMat0=    1 NMatS0=    1 NMatT0=    0 NMatD0=    1 NMtDS0=    0 NMtDT0=    0
         I1Cent=           0 NGrid=           0.
 Symmetry not used in FoFCou.
 E= -323.469019333021    
 DIIS: error= 3.57D-04 at cycle   1 NSaved=   1.
 NSaved= 1 IEnMin= 1 EnMin= -323.469019333021     IErMin= 1 ErrMin= 3.57D-04
 ErrMax= 3.57D-04 EMaxC= 1.00D-01 BMatC= 6.89D-05 BMatP= 6.89D-05
 IDIUse=3 WtCom= 9.96D-01 WtEn= 3.57D-03
 Coeff-Com:  0.100D+01
 Coeff-En:   0.100D+01
 Coeff:      0.100D+01
 Gap=     0.337 Goal=   None    Shift=    0.000
 RMSDP=1.21D-04 MaxDP=2.38D-03              OVMax= 2.56D-03

 Cycle   2  Pass 1  IDiag  1:
 RMSU=  8.59D-05    CP:  1.00D+00
 FoFJK:  IHMeth= 1 ICntrl=     0 DoSepK=T KAlg= 1 I1Cent= 0 FoldK=F
 E= -323.469120238350     Delta-E=       -0.000100905329 Rises=F Damp=F
 DIIS: error= 1.66D-04 at cycle   2 NSaved=   2.
 NSaved= 2 IEnMin= 2 EnMin= -323.469120238350     IErMin= 2 ErrMin= 1.66D-04
 ErrMax= 1.66D-04 EMaxC= 1.00D-01 BMatC= 7.58D-06 BMatP= 6.89D-05
 IDIUse=3 WtCom= 9.98D-01 WtEn= 1.66D-03
 Coeff-Com:  0.588D-01 0.941D+00
 Coeff-En:   0.000D+00 0.100D+01
 Coeff:      0.587D-01 0.941D+00
 Gap=     0.337 Goal=   None    Shift=    0.000
 RMSDP=3.28D-05 MaxDP=8.11D-04 DE=-1.01D-04 OVMax= 1.17D-03

 Cycle   3  Pass 1  IDiag  1:
 RMSU=  2.27D-05    CP:  1.00D+00  1.06D+00
 FoFJK:  IHMeth= 1 ICntrl=     0 DoSepK=T KAlg= 1 I1Cent= 0 FoldK=F
 E= -323.469126121650     Delta-E=       -0.000005883300 Rises=F Damp=F
 DIIS: error= 1.30D-04 at cycle   3 NSaved=   3.
 NSaved= 3 IEnMin= 3 EnMin= -323.469126121650     IErMin= 3 ErrMin= 1.30D-04
 ErrMax= 1.30D-04 EMaxC= 1.00D-01 BMatC= 4.27D-06 BMatP= 7.58D-06
 IDIUse=3 WtCom= 9.99D-01 WtEn= 1.30D-03
 Coeff-Com: -0.677D-01 0.433D+00 0.635D+00
 Coeff-En:   0.000D+00 0.590D-01 0.941D+00
 Coeff:     -0.676D-01 0.433D+00 0.635D+00
 Gap=     0.337 Goal=   None    Shift=    0.000
 RMSDP=1.76D-05 MaxDP=4.14D-04 DE=-5.88D-06 OVMax= 9.69D-04

 Cycle   4  Pass 1  IDiag  1:
 RMSU=  1.11D-05    CP:  1.00D+00  1.10D+00  8.15D-01
 FoFJK:  IHMeth= 1 ICntrl=     0 DoSepK=T KAlg= 1 I1Cent= 0 FoldK=F
 E= -323.469129111473     Delta-E=       -0.000002989823 Rises=F Damp=F
 DIIS: error= 1.10D-04 at cycle   4 NSaved=   4.
 NSaved= 4 IEnMin= 4 EnMin= -323.469129111473     IErMin= 4 ErrMin= 1.10D-04
 ErrMax= 1.10D-04 EMaxC= 1.00D-01 BMatC= 1.32D-06 BMatP= 4.27D-06
 IDIUse=3 WtCom= 9.99D-01 WtEn= 1.10D-03
 Coeff-Com: -0.474D-01 0.203D+00 0.411D+00 0.433D+00
 Coeff-En:   0.000D+00 0.000D+00 0.112D+00 0.888D+00
 Coeff:     -0.474D-01 0.203D+00 0.411D+00 0.434D+00
 Gap=     0.337 Goal=   None    Shift=    0.000
 RMSDP=7.33D-06 MaxDP=2.04D-04 DE=-2.99D-06 OVMax= 4.78D-04

 Cycle   5  Pass 1  IDiag  1:
 RMSU=  4.07D-06    CP:  1.00D+00  1.10D+00  9.11D-01  7.89D-01
 FoFJK:  IHMeth= 1 ICntrl=     0 DoSepK=T KAlg= 1 I1Cent= 0 FoldK=F
 E= -323.469130104908     Delta-E=       -0.000000993435 Rises=F Damp=F
 DIIS: error= 1.92D-05 at cycle   5 NSaved=   5.
 NSaved= 5 IEnMin= 5 EnMin= -323.469130104908     IErMin= 5 ErrMin= 1.92D-05
 ErrMax= 1.92D-05 EMaxC= 1.00D-01 BMatC= 5.41D-08 BMatP= 1.32D-06
 IDIUse=1 WtCom= 1.00D+00 WtEn= 0.00D+00
 Coeff-Com: -0.273D-03-0.389D-01-0.127D-01 0.155D+00 0.897D+00
 Coeff:     -0.273D-03-0.389D-01-0.127D-01 0.155D+00 0.897D+00
 Gap=     0.337 Goal=   None    Shift=    0.000
 RMSDP=2.96D-06 MaxDP=5.01D-05 DE=-9.93D-07 OVMax= 1.03D-04

 Cycle   6  Pass 1  IDiag  1:
 RMSU=  1.02D-06    CP:  1.00D+00  1.10D+00  9.51D-01  9.29D-01  1.05D+00
 FoFJK:  IHMeth= 1 ICntrl=     0 DoSepK=T KAlg= 1 I1Cent= 0 FoldK=F
 E= -323.469130173407     Delta-E=       -0.000000068498 Rises=F Damp=F
 DIIS: error= 1.72D-06 at cycle   6 NSaved=   6.
 NSaved= 6 IEnMin= 6 EnMin= -323.469130173407     IErMin= 6 ErrMin= 1.72D-06
 ErrMax= 1.72D-06 EMaxC= 1.00D-01 BMatC= 1.53D-09 BMatP= 5.41D-08
 IDIUse=1 WtCom= 1.00D+00 WtEn= 0.00D+00
 Coeff-Com:  0.254D-02-0.185D-01-0.237D-01 0.333D-03 0.138D+00 0.901D+00
 Coeff:      0.254D-02-0.185D-01-0.237D-01 0.333D-03 0.138D+00 0.901D+00
 Gap=     0.337 Goal=   None    Shift=    0.000
 RMSDP=1.02D-06 MaxDP=2.31D-05 DE=-6.85D-08 OVMax= 2.73D-05

 Cycle   7  Pass 1  IDiag  1:
 RMSU=  4.97D-07    CP:  1.00D+00  1.10D+00  9.60D-01  9.53D-01  1.12D+00
                    CP:  1.27D+00
 FoFJK:  IHMeth= 1 ICntrl=     0 DoSepK=T KAlg= 1 I1Cent= 0 FoldK=F
 E= -323.469130176838     Delta-E=       -0.000000003431 Rises=F Damp=F
 DIIS: error= 1.15D-06 at cycle   7 NSaved=   7.
 NSaved= 7 IEnMin= 7 EnMin= -323.469130176838     IErMin= 7 ErrMin= 1.15D-06
 ErrMax= 1.15D-06 EMaxC= 1.00D-01 BMatC= 6.01D-10 BMatP= 1.53D-09
 IDIUse=1 WtCom= 1.00D+00 WtEn= 0.00D+00
 Coeff-Com:  0.125D-02-0.478D-02-0.971D-02-0.154D-01-0.232D-01 0.424D+00
 Coeff-Com:  0.628D+00
 Coeff:      0.125D-02-0.478D-02-0.971D-02-0.154D-01-0.232D-01 0.424D+00
 Coeff:      0.628D+00
 Gap=     0.337 Goal=   None    Shift=    0.000
 RMSDP=2.72D-07 MaxDP=5.50D-06 DE=-3.43D-09 OVMax= 1.27D-05

 Cycle   8  Pass 1  IDiag  1:
 RMSU=  1.29D-07    CP:  1.00D+00  1.10D+00  9.61D-01  9.57D-01  1.13D+00
                    CP:  1.37D+00  1.15D+00
 FoFJK:  IHMeth= 1 ICntrl=     0 DoSepK=T KAlg= 1 I1Cent= 0 FoldK=F
 E= -323.469130177638     Delta-E=       -0.000000000800 Rises=F Damp=F
 DIIS: error= 7.05D-07 at cycle   8 NSaved=   8.
 NSaved= 8 IEnMin= 8 EnMin= -323.469130177638     IErMin= 8 ErrMin= 7.05D-07
 ErrMax= 7.05D-07 EMaxC= 1.00D-01 BMatC= 9.95D-11 BMatP= 6.01D-10
 IDIUse=1 WtCom= 1.00D+00 WtEn= 0.00D+00
 Coeff-Com:  0.112D-03 0.105D-02-0.291D-04-0.656D-02-0.320D-01 0.239D-01
 Coeff-Com:  0.274D+00 0.740D+00
 Coeff:      0.112D-03 0.105D-02-0.291D-04-0.656D-02-0.320D-01 0.239D-01
 Coeff:      0.274D+00 0.740D+00
 Gap=     0.337 Goal=   None    Shift=    0.000
 RMSDP=1.49D-07 MaxDP=4.25D-06 DE=-8.00D-10 OVMax= 1.05D-05

 Cycle   9  Pass 1  IDiag  1:
 RMSU=  6.42D-08    CP:  1.00D+00  1.10D+00  9.62D-01  9.57D-01  1.13D+00
                    CP:  1.42D+00  1.26D+00  1.09D+00
 FoFJK:  IHMeth= 1 ICntrl=     0 DoSepK=T KAlg= 1 I1Cent= 0 FoldK=F
 E= -323.469130177902     Delta-E=       -0.000000000264 Rises=F Damp=F
 DIIS: error= 3.22D-07 at cycle   9 NSaved=   9.
 NSaved= 9 IEnMin= 9 EnMin= -323.469130177902     IErMin= 9 ErrMin= 3.22D-07
 ErrMax= 3.22D-07 EMaxC= 1.00D-01 BMatC= 2.55D-11 BMatP= 9.95D-11
 IDIUse=1 WtCom= 1.00D+00 WtEn= 0.00D+00
 Coeff-Com: -0.274D-03 0.168D-02 0.233D-02 0.684D-03-0.767D-02-0.987D-01
 Coeff-Com: -0.647D-01 0.290D+00 0.877D+00
 Coeff:     -0.274D-03 0.168D-02 0.233D-02 0.684D-03-0.767D-02-0.987D-01
 Coeff:     -0.647D-01 0.290D+00 0.877D+00
 Gap=     0.337 Goal=   None    Shift=    0.000
 RMSDP=1.13D-07 MaxDP=2.40D-06 DE=-2.64D-10 OVMax= 9.56D-06

 Cycle  10  Pass 1  IDiag  1:
 RMSU=  4.26D-08    CP:  1.00D+00  1.10D+00  9.61D-01  9.57D-01  1.13D+00
                    CP:  1.46D+00  1.34D+00  1.38D+00  1.43D+00
 FoFJK:  IHMeth= 1 ICntrl=     0 DoSepK=T KAlg= 1 I1Cent= 0 FoldK=F
 E= -323.469130178014     Delta-E=       -0.000000000112 Rises=F Damp=F
 DIIS: error= 1.55D-07 at cycle  10 NSaved=  10.
 NSaved=10 IEnMin=10 EnMin= -323.469130178014     IErMin=10 ErrMin= 1.55D-07
 ErrMax= 1.55D-07 EMaxC= 1.00D-01 BMatC= 3.77D-12 BMatP= 2.55D-11
 IDIUse=1 WtCom= 1.00D+00 WtEn= 0.00D+00
 Coeff-Com: -0.414D-04-0.237D-03 0.726D-04 0.185D-02 0.102D-01-0.108D-01
 Coeff-Com: -0.833D-01-0.193D+00 0.736D-01 0.120D+01
 Coeff:     -0.414D-04-0.237D-03 0.726D-04 0.185D-02 0.102D-01-0.108D-01
 Coeff:     -0.833D-01-0.193D+00 0.736D-01 0.120D+01
 Gap=     0.337 Goal=   None    Shift=    0.000
 RMSDP=6.85D-08 MaxDP=2.07D-06 DE=-1.12D-10 OVMax= 7.37D-06

 Cycle  11  Pass 1  IDiag  1:
 RMSU=  1.74D-08    CP:  1.00D+00  1.10D+00  9.61D-01  9.57D-01  1.13D+00
                    CP:  1.46D+00  1.36D+00  1.53D+00  1.94D+00  1.45D+00
 FoFJK:  IHMeth= 1 ICntrl=     0 DoSepK=T KAlg= 1 I1Cent= 0 FoldK=F
 E= -323.469130178050     Delta-E=       -0.000000000036 Rises=F Damp=F
 DIIS: error= 6.08D-08 at cycle  11 NSaved=  11.
 NSaved=11 IEnMin=11 EnMin= -323.469130178050     IErMin=11 ErrMin= 6.08D-08
 ErrMax= 6.08D-08 EMaxC= 1.00D-01 BMatC= 3.79D-13 BMatP= 3.77D-12
 IDIUse=1 WtCom= 1.00D+00 WtEn= 0.00D+00
 Coeff-Com:  0.370D-04-0.234D-03-0.308D-03-0.629D-04 0.852D-03 0.143D-01
 Coeff-Com:  0.907D-02-0.500D-01-0.106D+00-0.353D-01 0.117D+01
 Coeff:      0.370D-04-0.234D-03-0.308D-03-0.629D-04 0.852D-03 0.143D-01
 Coeff:      0.907D-02-0.500D-01-0.106D+00-0.353D-01 0.117D+01
 Gap=     0.337 Goal=   None    Shift=    0.000
 RMSDP=2.68D-08 MaxDP=6.45D-07 DE=-3.60D-11 OVMax= 2.68D-06

 Cycle  12  Pass 1  IDiag  1:
 RMSU=  5.15D-09    CP:  1.00D+00  1.10D+00  9.61D-01  9.57D-01  1.13D+00
                    CP:  1.46D+00  1.35D+00  1.57D+00  2.12D+00  1.67D+00
                    CP:  1.49D+00
 FoFJK:  IHMeth= 1 ICntrl=     0 DoSepK=T KAlg= 1 I1Cent= 0 FoldK=F
 E= -323.469130178052     Delta-E=       -0.000000000003 Rises=F Damp=F
 DIIS: error= 1.59D-08 at cycle  12 NSaved=  12.
 NSaved=12 IEnMin=12 EnMin= -323.469130178052     IErMin=12 ErrMin= 1.59D-08
 ErrMax= 1.59D-08 EMaxC= 1.00D-01 BMatC= 5.60D-14 BMatP= 3.79D-13
 IDIUse=1 WtCom= 1.00D+00 WtEn= 0.00D+00
 Coeff-Com:  0.922D-05 0.197D-05-0.395D-04-0.198D-03-0.122D-02 0.335D-02
 Coeff-Com:  0.116D-01 0.131D-01-0.148D-01-0.158D+00 0.167D+00 0.979D+00
 Coeff:      0.922D-05 0.197D-05-0.395D-04-0.198D-03-0.122D-02 0.335D-02
 Coeff:      0.116D-01 0.131D-01-0.148D-01-0.158D+00 0.167D+00 0.979D+00
 Gap=     0.337 Goal=   None    Shift=    0.000
 RMSDP=7.08D-09 MaxDP=1.40D-07 DE=-2.61D-12 OVMax= 6.51D-07

 SCF Done:  E(RwB97XD) =  -323.469130178     A.U. after   12 cycles
             Convg  =    0.7076D-08             -V/T =  2.0087
 KE= 3.206879031245D+02 PE=-1.254717675094D+03 EE= 3.607429253368D+02
 Leave Link  502 at Thu Oct 13 23:30:03 2022, MaxMem= 3276800000 cpu:     229.2
 (Enter /local/g09-source/g09/l601.exe)
 Copying SCF densities to generalized density rwf, IOpCl= 0 IROHF=0.

 **********************************************************************

            Population analysis using the SCF density.

 **********************************************************************

 Alpha  occ. eigenvalues --  -19.34244 -19.31758 -14.70542 -10.37311 -10.32282
 Alpha  occ. eigenvalues --  -10.31793  -1.30867  -1.13778  -0.98243  -0.87940
 Alpha  occ. eigenvalues --   -0.77483  -0.69622  -0.64843  -0.64760  -0.61218
 Alpha  occ. eigenvalues --   -0.57135  -0.54276  -0.49822  -0.48998  -0.43503
 Alpha  occ. eigenvalues --   -0.42807  -0.41093  -0.39878  -0.38545
 Alpha virt. eigenvalues --   -0.04871   0.00784   0.01381   0.01421   0.01685
 Alpha virt. eigenvalues --    0.04804   0.06396   0.06600   0.07143   0.09736
 Alpha virt. eigenvalues --    0.09955   0.10678   0.11994   0.13049   0.14127
 Alpha virt. eigenvalues --    0.14797   0.15076   0.15955   0.17058   0.18277
 Alpha virt. eigenvalues --    0.19982   0.20570   0.22398   0.23903   0.24498
 Alpha virt. eigenvalues --    0.25806   0.26109   0.26338   0.28289   0.30990
 Alpha virt. eigenvalues --    0.32157   0.32659   0.33784   0.34401   0.35387
 Alpha virt. eigenvalues --    0.36867   0.37357   0.38790   0.39614   0.41370
 Alpha virt. eigenvalues --    0.42924   0.44280   0.47190   0.49949   0.55530
 Alpha virt. eigenvalues --    0.70044   0.71838   0.73170   0.75224   0.75855
 Alpha virt. eigenvalues --    0.78960   0.81241   0.86574   0.92905   0.93935
 Alpha virt. eigenvalues --    0.98032   1.00066   1.05801   1.07330   1.08878
 Alpha virt. eigenvalues --    1.12871   1.14145   1.18886   1.20343   1.23432
 Alpha virt. eigenvalues --    1.25672   1.29558   1.31879   1.32752   1.34758
 Alpha virt. eigenvalues --    1.35408   1.38779   1.40873   1.45804   1.49246
 Alpha virt. eigenvalues --    1.55887   1.56988   1.66324   1.73666   1.77907
 Alpha virt. eigenvalues --    1.80163   1.82849   1.85631   1.87998   1.92456
 Alpha virt. eigenvalues --    1.93458   1.95762   1.99933   2.01372   2.04187
 Alpha virt. eigenvalues --    2.06532   2.07655   2.13648   2.14639   2.17413
 Alpha virt. eigenvalues --    2.25563   2.28464   2.33730   2.35145   2.35506
 Alpha virt. eigenvalues --    2.42648   2.43926   2.49446   2.52005   2.54137
 Alpha virt. eigenvalues --    2.57207   2.62975   2.64646   2.72548   2.75831
 Alpha virt. eigenvalues --    2.79588   2.83134   2.90694   2.94063   2.97387
 Alpha virt. eigenvalues --    3.00807   3.04381   3.07783   3.13406   3.22185
 Alpha virt. eigenvalues --    3.24059   3.31103   3.57146   3.57581   3.60794
 Alpha virt. eigenvalues --    3.69278   3.83196   4.24247   4.41456   4.47454
 Alpha virt. eigenvalues --    4.66089   4.70633   4.75875
     Molecular Orbital Coefficients:
                           1         2         3         4         5
                           O         O         O         O         O
     Eigenvalues --  -.19342444207083E+02 -.19317578551092E+02 -.14705423623707E+02 -.10373114538252E+02 -.10322822172282E+02
   1 1   C  1S       -.15696837772182E-05 -.11658175490286E-04 0.22660935322434E-04 0.99346326488665E+00 -.19290773859604E-02
   2        2S       0.45568870786947E-04 0.16383414663139E-04 0.87912078983760E-04 0.48836608128064E-01 -.30045921740544E-03
   3        3S       0.16089381329478E-03 0.56783905403151E-03 0.89527260323425E-03 -.23222636603569E-01 0.48284884268353E-02
   4        4S       -.44479488169940E-03 0.15792843987760E-02 0.59527428286067E-03 -.20405375726335E-01 0.77186998817614E-03
   5        5PX      0.16843288760735E-04 -.62532132424960E-06 -.76563597701663E-04 -.63052880553056E-04 -.46451499890696E-05
   6        5PY      -.49462986770623E-05 0.75964630500658E-04 -.23475140368046E-03 -.12780891037873E-02 0.53066986259087E-04
   7        5PZ      -.11283486416424E-04 -.19139656669996E-04 0.17845647713743E-03 0.88482638767539E-03 0.17519176457554E-04
   8        6PX      -.14694918016851E-03 0.48265060032429E-04 0.83258143331648E-04 -.13326986282926E-02 0.25911362948140E-02
   9        6PY      -.62418382579196E-04 -.45970950151265E-03 -.29077057168223E-03 0.91788388139707E-03 0.24504129530241E-02
  10        6PZ      0.17574494776694E-03 0.51787478286404E-04 0.14499776518347E-03 -.15816328327134E-02 -.76308790621398E-04
  11        7PX      0.14656600061367E-02 -.11535847070261E-02 0.72508453885027E-04 -.11186755308187E-02 0.61458967542250E-04
  12        7PY      0.11862782731580E-05 -.47945143429813E-03 0.12627050871044E-03 0.17256847806223E-02 -.21348333224148E-04
  13        7PZ      -.38398829833270E-03 0.14485653345319E-02 0.61855487113813E-04 -.25135887815488E-02 0.33779104166535E-03
  14        8XX      -.61772846631582E-04 -.62316496855486E-04 -.33803342495853E-05 -.78530577736659E-02 -.30982881535967E-03
  15        8YY      0.27203501779613E-04 -.13165396204348E-03 0.59961440002208E-05 -.73685629241596E-02 -.21734239230077E-03
  16        8ZZ      -.43279734778795E-04 -.25496597295081E-04 0.61429593299580E-05 -.76489113476222E-02 -.12003520046156E-03
  17        8XY      -.69047023392602E-04 0.75491148407349E-04 -.44136509651381E-06 -.13454791871801E-03 -.10818363617237E-03
  18        8XZ      0.66188193199045E-04 -.39405355204290E-04 -.16943058741921E-04 -.79754468855402E-04 -.22230334679788E-05
  19        8YZ      -.85264607929661E-05 0.22448430918329E-04 -.73524784040284E-05 -.30684906346820E-03 0.23200982851419E-04
  20 2   C  1S       -.68003085131007E-05 0.20375354003801E-04 0.26266268600200E-05 0.16880258384858E-02 0.99337765089099E+00
  21        2S       -.31575783978067E-04 0.68087395625115E-04 0.62420668542149E-04 -.19410568181465E-03 0.48488133460803E-01
  22        3S       0.34474043842259E-03 -.55259906877116E-03 -.16521077598803E-03 0.48534195028033E-02 -.24069975894045E-01
  23        4S       0.32035560102083E-02 0.16337323815180E-02 -.43567018267724E-03 0.10412916280317E-01 -.40802401417640E-02
  24        5PX      -.12367365528059E-05 0.77910017656691E-05 0.28849757920033E-04 -.49896592991686E-04 -.37342874606510E-03
  25        5PY      0.64339320023766E-05 -.29176839187060E-04 0.18791527407084E-04 -.55049159359266E-04 -.24303297298356E-03
  26        5PZ      0.11856161603215E-06 -.19753073244996E-04 0.11073594213609E-05 -.23786983445772E-05 -.25176403985383E-03
  27        6PX      -.10145158812774E-03 0.32255359375533E-04 0.85064549148279E-04 -.20593004307110E-02 0.20231976005500E-02
  28        6PY      -.15683721770003E-03 0.12066637297644E-03 0.19132981928474E-03 -.13148734495017E-02 0.14379690334498E-02
  29        6PZ      -.12249949188984E-03 0.12802767456403E-03 -.19004731810793E-04 -.10297914155522E-03 -.51856577781996E-03
  30        7PX      -.62069284392949E-03 -.32059169956826E-03 0.74332970344851E-04 -.13234374827611E-02 0.13086138354599E-03
  31        7PY      -.28720629187989E-03 -.41460232383866E-03 -.37364854822172E-04 -.77629337644605E-03 0.21773870975779E-03
  32        7PZ      0.11953633385145E-02 -.25871011197614E-03 -.54047715045216E-04 0.13102979771950E-02 -.17800309812233E-03
  33        8XX      0.48693419221729E-05 0.32898403862589E-04 -.22518375260025E-04 -.33475414001363E-03 -.78506386315959E-02
  34        8YY      -.15416110914922E-04 0.39742724184798E-04 -.47636472700881E-04 -.16757456221231E-03 -.75908823796883E-02
  35        8ZZ      -.84230518928551E-05 0.46857794761555E-04 -.12962767455570E-05 -.16575518681886E-03 -.77149398990121E-02
  36        8XY      0.55120415529542E-05 -.93229971357766E-05 -.45665735194605E-04 -.14227759549748E-04 -.25657288844620E-03
  37        8XZ      0.15349057482353E-04 0.52208272954492E-05 0.19978619510564E-04 -.74979796047282E-04 -.92447442755282E-04
  38        8YZ      0.77596347943053E-05 -.21315444827915E-06 0.12719103061298E-04 -.45961545722651E-04 -.18184422851572E-03
  39 3   N  1S       -.31965210498908E-04 -.19135794394238E-04 0.99305657746195E+00 -.18739947321280E-03 -.37254734519232E-04
  40        2S       0.21612859184969E-03 0.20578684215408E-03 0.33404416903896E-01 0.10023390362640E-03 -.16714546857676E-03
  41        3S       0.44348818946165E-03 -.13557908093539E-03 0.21603468119992E-02 0.15035241542932E-02 -.18921175818787E-03
  42        4S       0.76243181269031E-02 0.43087126659647E-02 0.33330486471593E-03 0.20126025808782E-01 -.53371375475770E-03
  43        5S       0.21672830927152E-03 -.12772751662468E-03 -.74360712919114E-04 0.21103301226067E-02 0.39940663697927E-03
  44        6S       -.15689648529944E-04 0.13041426551285E-04 0.33731838553547E-05 -.31468032637464E-03 -.39402670639250E-04
  45        7PX      -.25727852456895E-03 0.25937319913097E-03 -.10681928205960E-03 -.24634070417717E-04 -.73636831038994E-04
  46        7PY      -.59982593521504E-04 -.18274548253867E-03 -.65741540218945E-04 -.15789218394807E-03 -.57798756674251E-04
  47        7PZ      0.15114000499048E-03 -.24616678778195E-04 0.64448983103832E-05 0.15686887644994E-03 0.46093565299673E-04
  48        8PX      0.10401349519890E-03 -.80901440229561E-04 -.18572607238475E-03 -.95771506345926E-03 0.15264982654472E-02
  49        8PY      -.31499026633588E-04 -.20884014554923E-03 -.23412623129383E-03 0.13194603554888E-02 0.38128226348386E-03
  50        8PZ      -.31769140882091E-04 0.12711357064558E-03 0.32119412592658E-03 -.25305778440781E-04 -.12606399358202E-02
  51        9PX      -.86651019244116E-02 0.70853765774857E-02 0.40310409979779E-03 0.37313292798199E-03 0.32040789470079E-02
  52        9PY      -.13300818849379E-03 -.30067558283048E-02 -.18004405382771E-04 0.60403008842341E-02 0.19668648434292E-02
  53        9PZ      0.42748597556238E-02 -.14395670468695E-02 -.20376475239109E-03 -.29489743823238E-02 -.29062117345315E-02
  54       10PX      0.54317224731896E-04 0.20737308758932E-04 -.41707700326707E-04 -.32887285080727E-04 0.21490643131512E-04
  55       10PY      0.23174098553517E-03 0.71963433206349E-04 -.36712021313264E-04 0.38841931331985E-03 -.32600399480924E-04
  56       10PZ      -.62053590451507E-04 0.50973723712520E-04 0.23747690939588E-04 -.26362317033330E-03 0.24864018863925E-04
  57       11PX      -.97403870029301E-05 -.72422231000545E-05 0.10090247501007E-04 0.13615021080651E-04 0.20625503634229E-04
  58       11PY      -.38332450019982E-04 -.16360489930272E-04 0.52669186172289E-05 -.49448991651911E-04 0.16882002272929E-04
  59       11PZ      0.59759708211445E-06 -.22532224099911E-04 -.56928970445890E-05 0.24539119146146E-04 -.43532382407673E-04
  60       12XX      -.24150117066928E-03 -.31240372250753E-04 -.74989230696059E-02 -.22729812188998E-03 -.14135196046074E-03
  61       12YY      -.91601094147187E-04 -.20946977452677E-04 -.75794379526576E-02 -.41079064199726E-03 -.18044599954685E-05
  62       12ZZ      -.15469449254909E-03 -.45163734636707E-04 -.75539101033869E-02 -.21409821592366E-03 -.13666693108278E-03
  63       12XY      -.50281985569665E-04 0.22677482747776E-05 0.30466580782510E-04 0.76081529045301E-04 -.33936984742971E-04
  64       12XZ      0.10580856276079E-03 -.25615884230454E-04 -.60474747733562E-04 0.22395781751048E-03 0.13608490765850E-03
  65       12YZ      0.13656821149786E-04 -.25071867584496E-04 -.15722915112338E-04 0.46857060096062E-03 -.78006829882689E-04
  66 4   H  1S       0.24342134979939E-04 0.16630494194083E-04 -.62657523000089E-04 -.40377766738569E-04 -.20471933623454E-03
  67        2S       -.26857884662452E-03 0.21855137400140E-03 -.16431447353017E-03 0.26500337328871E-02 -.38167758067532E-03
  68        3PX      -.30301603104364E-04 0.34509545337672E-04 -.15981996768181E-04 -.95520230768865E-04 0.36306360720465E-04
  69        3PY      -.11429027275579E-04 -.11193254034350E-04 0.69988975062506E-04 0.12744732620250E-03 -.44132048588723E-04
  70        3PZ      0.15048744438220E-04 -.92914232608302E-05 -.39085144381082E-04 0.41797247158268E-04 0.29749187924406E-04
  71 5   H  1S       -.29382657782931E-04 0.17374535157330E-04 -.77652122155547E-04 0.18439352514726E-03 -.63030506347249E-04
  72        2S       0.44981326429774E-03 -.42590412618792E-03 -.26412522967173E-03 0.26261715629218E-02 -.65748037888757E-03
  73        3PX      0.11361984734662E-04 0.99597662230041E-05 0.64828340560671E-05 0.71899457082355E-04 0.10479896640341E-03
  74        3PY      0.12053460528242E-04 -.80359257259513E-05 0.19483707440073E-04 -.13271642748027E-03 0.72356245641534E-04
  75        3PZ      0.83996828492514E-05 -.16478525938673E-04 -.69628758044546E-04 -.13219907349144E-03 -.90042892566923E-05
  76 6   O  1S       0.99280129097292E+00 0.33655508484301E-03 -.35930133883660E-04 0.50354678027929E-06 -.20023629098858E-04
  77        2S       0.24540445485733E-01 0.14906605901317E-03 0.17349958193936E-03 -.74760358208636E-04 -.12885433893978E-03
  78        3S       0.15115595340306E-01 -.68711642597589E-03 -.13193447061136E-03 -.25707639087406E-03 0.11364106161187E-02
  79        4S       -.17949977688097E-01 0.47902299263969E-02 -.67317128780478E-04 -.29122294644318E-02 0.44733435783902E-02
  80        5PX      0.11508664383923E-02 -.21832054201653E-04 0.18141827995891E-03 0.31325109040493E-04 -.31267853801720E-05
  81        5PY      0.30477000315527E-03 0.83288669446174E-05 0.45501778451740E-04 -.39138240776403E-04 -.80437036165646E-05
  82        5PZ      -.68401241177614E-03 0.20787342832063E-05 -.10616929607901E-03 0.23399340334640E-04 0.86793396523607E-05
  83        6PX      -.55921805686006E-03 0.47836952513069E-04 -.16798859292302E-04 0.85524340199950E-04 0.81829032869840E-03
  84        6PY      -.13801317585737E-03 0.18644045529707E-04 0.22870565621473E-04 0.27607574659145E-04 0.29859483136867E-03
  85        6PZ      0.34127203392595E-03 -.93539686463867E-05 -.26716619719948E-04 -.14648780675451E-03 -.48383724147645E-03
  86        7PX      -.23436339503514E-02 0.36191184683941E-03 -.14060524702752E-03 -.75764207441751E-03 0.35910758879222E-03
  87        7PY      -.85943120141826E-03 0.68993283202947E-03 -.66755871304788E-04 -.14539028925951E-02 -.34607770161985E-03
  88        7PZ      0.14036316079922E-02 -.69584537892620E-03 0.81154977959990E-04 0.96554918767599E-03 -.68965243399987E-04
  89        8XX      -.81785243420751E-02 -.52097104669654E-05 -.57426237642945E-04 0.11859957583234E-03 0.78290643466016E-04
  90        8YY      -.81529831348625E-02 0.96997452936923E-04 0.33880457506889E-04 0.19035517662642E-06 -.87342514258058E-04
  91        8ZZ      -.81630238298303E-02 0.82868731727891E-04 0.24520536982490E-04 -.49717665451928E-05 -.26903084488888E-04
  92        8XY      -.91567545226748E-05 0.53056916050143E-04 -.92982311911142E-05 0.15457440792955E-04 0.47633506371576E-04
  93        8XZ      0.12798766670952E-04 0.13462243339906E-04 0.60598726320123E-04 -.15032631590710E-03 -.89336866199888E-04
  94        8YZ      -.64487860620380E-05 -.38283434411932E-04 0.17271856291283E-04 -.10719348590326E-03 -.47789167271151E-04
  95 7   O  1S       -.28172153574752E-03 0.99281803535825E+00 -.32998319211109E-04 -.82080422033814E-04 -.89956529698524E-05
  96        2S       0.13165843260120E-03 0.24580975003919E-01 0.13482904523429E-03 -.51151224392704E-03 -.39302000082892E-05
  97        3S       -.74415472912927E-03 0.14711649772833E-01 0.85440744122287E-04 0.23337367060050E-02 -.48321237703697E-03
  98        4S       0.52212338064572E-02 -.15461906972444E-01 -.68716338344596E-03 -.14152905450698E-02 -.12481937706977E-02
  99        5PX      0.11760575147136E-04 -.93618641488825E-03 -.18555362092321E-03 -.11160912297250E-05 -.45908883518280E-04
 100        5PY      -.31882489840143E-05 0.74718419802557E-03 0.15306670476320E-03 -.86823703724078E-04 -.77138423894729E-04
 101        5PZ      -.95395190781715E-05 0.97598003027462E-04 0.12673593708814E-04 0.60735772107544E-04 -.15821989932431E-04
 102        6PX      -.31747274445801E-04 0.56447515233480E-03 -.12480897061013E-03 -.72541875706496E-03 0.29331834022188E-03
 103        6PY      0.63272782148713E-04 -.39109774975791E-03 0.81052501929822E-04 0.13854747146385E-02 -.20684154367362E-03
 104        6PZ      0.54340930252928E-05 -.74221340536209E-04 0.20284450081905E-05 -.43819039346297E-03 0.15936524633382E-03
 105        7PX      -.41017119494160E-03 0.15756346494410E-02 0.13085299728996E-03 0.73302950661701E-04 -.59555156965962E-03
 106        7PY      0.11165226753163E-02 -.20631754074477E-02 -.17320047460959E-03 -.18374300704931E-02 -.58721439971786E-03
 107        7PZ      -.47452429836406E-03 0.81027371388553E-04 0.39115132316099E-04 0.37011054911168E-03 0.89747733743899E-03
 108        8XX      0.84831560772903E-05 -.81906798572692E-02 0.26852959221844E-04 -.18548931542399E-03 -.17964778785915E-04
 109        8YY      0.14544245268551E-03 -.81563211743193E-02 0.14492816276950E-04 0.35074618503478E-04 -.43143305395541E-04
 110        8ZZ      0.68635075893308E-04 -.81059172391676E-02 0.15510681876484E-04 -.29808922624933E-03 -.10355128270187E-03
 111        8XY      -.22022338575596E-04 0.79889751514099E-04 -.84610338297449E-05 -.24788469662143E-03 0.45490541698066E-04
 112        8XZ      0.46218538563159E-04 0.78231375731839E-05 0.13880851704866E-04 0.70417768972298E-05 -.52058883520936E-04
 113        8YZ      -.32726763512167E-04 -.91896192604548E-05 0.19538858104360E-04 -.20236924369565E-03 0.48275716425217E-04
 114 8   C  1S       -.12565723163581E-04 -.48329708898918E-05 0.10136760729641E-04 -.13379816011768E-03 0.13879364335740E-01
 115        2S       -.42185034841809E-04 -.97279193260562E-05 0.31726917619946E-04 -.22407612680045E-03 0.42288941891483E-03
 116        3S       0.35720647078665E-03 -.38858869518922E-05 -.10538964484394E-03 0.33864562960901E-03 0.48671989855977E-02
 117        4S       -.29499117438125E-02 -.10087343227728E-02 0.15911786417999E-03 -.35171301172653E-02 0.17023987371974E-02
 118        5PX      -.73336709894536E-05 0.13299419298421E-05 -.15231139091804E-04 0.89322177464754E-04 -.22463012895845E-04
 119        5PY      -.20451454382212E-05 0.27041838229455E-05 -.13348148140039E-04 0.99756381167275E-04 -.59956240139048E-04
 120        5PZ      -.10344464985329E-04 -.48685094751999E-05 -.67439121098819E-05 0.90290208983049E-04 -.15268024608473E-04
 121        6PX      0.72604110527348E-04 -.16650902208073E-04 0.95625234390010E-04 -.36315985399843E-03 -.18844730566986E-03
 122        6PY      0.78197355607858E-04 -.15159777125177E-04 0.75127013224401E-04 -.47991566859211E-03 -.90738876795379E-03
 123        6PZ      -.30686053071754E-04 0.11106727075549E-03 0.71148812903813E-04 0.21061505426012E-03 -.22144843391254E-02
 124        7PX      0.44107423394226E-03 0.27482388401319E-03 -.34850735468199E-06 0.19549766588292E-04 0.86894708259267E-05
 125        7PY      0.63199176861064E-03 0.39242044376941E-03 0.34837070135007E-05 0.34126488958425E-03 -.70753762321137E-04
 126        7PZ      0.44253363252438E-03 0.12266847699862E-03 -.30604676705656E-04 0.93710068552390E-03 -.35229363950626E-03
 127        8XX      -.23585668436337E-04 -.20948355712250E-04 0.19597644999442E-04 -.73563116495044E-04 -.31972934520654E-03
 128        8YY      -.19470794369667E-04 -.55535888210537E-05 0.27777611971157E-04 -.11715395719206E-03 -.22828491729326E-03
 129        8ZZ      -.26750698162040E-04 -.10617941908792E-04 0.12891222678771E-04 -.10301677175753E-03 -.49110018401012E-03
 130        8XY      0.21275175749530E-05 -.17447483222620E-05 -.64613422281242E-07 0.39440818873809E-04 0.63290563544683E-04
 131        8XZ      -.53799092033140E-06 0.50118628931073E-06 -.34531367140595E-05 0.10474322758602E-04 -.13396693008826E-04
 132        8YZ      0.50861721030501E-05 -.44905894836327E-05 -.52266314774875E-06 -.41866207683129E-05 -.89314807233613E-04
 133 9   H  1S       0.11224014731693E-05 0.59158902350681E-04 0.22325436890378E-04 -.76035141201072E-04 -.12715959493766E-03
 134        2S       -.14932876462400E-05 -.59518280232584E-04 -.57655908420442E-04 -.22018712559728E-03 0.48869603476681E-02
 135        3PX      0.44865252487883E-05 0.18866982964997E-04 0.14059126772225E-04 -.16238175193311E-03 0.19635062002975E-04
 136        3PY      0.20568336934221E-05 -.25555213577549E-04 -.42141753714296E-05 -.27781808381787E-04 -.10509841539139E-03
 137        3PZ      0.29302244113562E-05 -.75157814604331E-05 -.63743020388596E-06 -.37716956611939E-05 0.53273916800028E-04
 138 10  H  1S       0.64102094321238E-05 0.59956899817242E-05 -.34030886298934E-05 -.14577410275991E-03 -.20365161719632E-03
 139        2S       -.11291374600001E-03 0.40169856851757E-04 -.49432085367679E-04 -.22328205407349E-03 0.39992288075115E-02
 140        3PX      0.37669602075536E-05 0.96704581555539E-06 0.14173093677888E-05 -.24102856384887E-04 -.67070782349170E-04
 141        3PY      0.49905252377065E-05 0.26550896837121E-05 -.87966916996322E-05 -.15555361383389E-04 0.16639729644703E-03
 142        3PZ      0.62384058014234E-05 -.44523996769529E-05 0.17099546192115E-05 0.15457668342620E-04 -.15714244664616E-03
 143 11  H  1S       -.17610816136904E-04 -.15171059490905E-05 0.17837119137056E-04 -.45626168890223E-04 -.18037524419463E-03
 144        2S       0.99750216771694E-04 -.23425197468517E-03 -.42147667589669E-04 -.91953674377893E-03 -.12792615228984E-03
 145        3PX      0.57874142397073E-05 0.21369740239170E-05 -.36487517782193E-05 0.73534920095624E-04 0.11965795779876E-04
 146        3PY      0.19390251332957E-05 -.13642345996009E-04 -.57929587229343E-05 0.48411678594690E-04 0.15821721375703E-04
 147        3PZ      -.14236024562718E-04 -.66923077007472E-05 0.37364691233939E-05 0.63960295006651E-04 -.39621760080606E-04
 148 12  H  1S       -.12585736732307E-04 -.29205602367247E-06 -.61708035329598E-05 0.77143814975080E-05 -.22164667460541E-03
 149        2S       -.16630624314390E-03 0.46119446521521E-04 -.82851631779021E-04 0.60829147917821E-03 -.28015486167055E-03
 150        3PX      0.83892133964048E-06 -.24166306254789E-05 0.41512116131828E-05 -.25152204903158E-04 0.12642574801692E-04
 151        3PY      0.49492138367275E-05 -.27339633544285E-05 0.95128077476108E-05 -.35925090680255E-04 0.75619395122699E-05
 152        3PZ      0.73107778097149E-06 -.55925627329612E-05 -.18974960087359E-05 -.32710607957304E-04 0.47697828313176E-04
 153 13  H  1S       0.95810179293137E-06 -.61157160504993E-05 0.34291255226965E-04 -.13438044050508E-03 -.20863642718293E-04
 154        2S       -.14764866482597E-03 -.34556538684381E-04 -.34735424430106E-04 -.14462867580679E-04 -.19905030035973E-03
 155        3PX      0.52456946573304E-05 0.65605644335768E-06 -.55793300602460E-06 -.95830625343944E-05 0.44340656248121E-04
 156        3PY      0.10261440508541E-04 0.61960656734337E-05 -.25511289559309E-05 -.17379346154759E-04 -.71436692969184E-04
 157        3PZ      0.12250653221245E-05 0.30484777802546E-05 -.69554708055436E-06 -.21219987586464E-04 -.21411058947047E-03
                           6         7         8         9        10
                           O         O         O         O         O
     Eigenvalues --  -.10317932448365E+02 -.13086684761535E+01 -.11377804879491E+01 -.98243483436162E+00 -.87939536472206E+00
   1 1   C  1S       0.53984639871010E-04 -.46586576438091E-01 0.22906905465300E-01 -.15024695744889E+00 0.17962416737096E-01
   2        2S       -.23275400888383E-03 0.87775819745986E-01 -.44550024016041E-01 0.28429356826421E+00 -.42740737605985E-01
   3        3S       0.58702458452250E-03 -.12379633977887E-02 -.24472640323750E-01 0.22518891303060E+00 -.98143729665769E-02
   4        4S       -.14248863842483E-01 0.41333680362244E-01 -.39725644962494E-01 0.70633188553127E-01 -.92484350162325E-02
   5        5PX      -.12002412625222E-03 -.96505121811067E-02 -.26856679564079E-01 -.39157007865962E-02 0.91950302838811E-01
   6        5PY      -.48573404977991E-04 -.59368844460209E-01 0.33297708015999E-01 -.69893356921015E-01 0.13123358455002E+00
   7        5PZ      -.69311214092259E-04 0.43481598917803E-01 -.91130191931729E-02 0.71557073092533E-01 -.52854504459728E-01
   8        6PX      0.10368191783937E-03 -.24323246247018E-02 -.16524431715809E-01 0.77741193654188E-02 0.17925954591733E-01
   9        6PY      -.92534628376315E-04 0.13952835881985E-01 0.76584559118264E-02 0.18706210230370E-02 0.77876038048380E-02
  10        6PZ      0.23243836463991E-03 -.72440646531130E-02 0.65579936887081E-02 0.54209304307175E-02 0.13867504537389E-02
  11        7PX      -.32281378826772E-02 -.19612522609520E-02 0.18596895264326E-01 -.30292420510678E-02 0.86521445050735E-02
  12        7PY      -.15251742721459E-02 -.10989649479273E-01 0.36660493086771E-02 -.26434155118750E-01 0.18551683551398E-01
  13        7PZ      -.14880771786956E-02 0.12215100046707E-01 -.17148738260576E-01 0.13256848690375E-01 -.20170553986272E-02
  14        8XX      -.12323957545128E-03 -.56714020934087E-02 0.37812894321904E-02 -.72001461266105E-02 0.12308596787442E-01
  15        8YY      -.94593666741037E-04 0.57849979907633E-02 -.49051448011817E-02 0.40768071818918E-03 -.52120903282891E-02
  16        8ZZ      -.57813835140646E-04 0.13091955676831E-02 0.22804114443348E-02 -.43907509594059E-02 -.15081006230608E-02
  17        8XY      0.25246299860381E-04 0.42404847162531E-02 0.44125220324354E-02 0.51280237219044E-02 0.20347852683676E-02
  18        8XZ      0.69053244548028E-06 -.25109639025751E-02 -.43686566110731E-02 -.26221361998253E-02 0.35623600099497E-02
  19        8YZ      0.31977242585132E-04 -.10463054853610E-01 0.28158211545946E-02 -.10029377896731E-01 0.10008412686205E-01
  20 2   C  1S       -.14130076240616E-01 -.58697425009904E-02 0.92912865125816E-02 -.72760858435748E-01 -.14023291488293E+00
  21        2S       -.91538860184061E-03 0.10211575078460E-01 -.16090551214979E-01 0.13140832617672E+00 0.25843749563225E+00
  22        3S       0.56318836174748E-02 0.73831609175871E-02 -.33083190042924E-02 0.98371071769400E-01 0.23297951763897E+00
  23        4S       0.16732908446246E-01 -.15751482164147E-01 0.52471687823636E-01 -.48920208808921E-02 -.73203105516444E-02
  24        5PX      0.20652383947184E-04 -.70115803415546E-02 0.56524481993199E-02 -.42339516606216E-01 0.61088305302107E-02
  25        5PY      0.83749823062301E-04 -.73311516945783E-02 0.95435404819567E-02 -.27248353830281E-01 0.17111336182703E-01
  26        5PZ      -.60782231469580E-05 0.11851620983475E-02 0.11016290818593E-03 0.15723084880447E-02 0.20970372779104E-01
  27        6PX      0.66897404585974E-03 -.45036638594146E-02 0.63186978882615E-04 -.54713721040620E-02 -.90275321370546E-02
  28        6PY      0.59433933799505E-03 -.42543393325811E-02 -.15340899435155E-02 -.93444092815349E-03 0.54513976772866E-02
  29        6PZ      0.25834188888198E-02 -.11078226785283E-02 -.81739144007208E-02 -.11505089925872E-02 0.13203051602009E-03
  30        7PX      -.32833432572402E-02 -.18053294584625E-02 -.86130407253656E-02 -.19812904383848E-02 0.42726395465055E-02
  31        7PY      -.22615686244012E-02 0.13699455019079E-03 0.81365587858253E-04 0.63180640756527E-02 -.38972432521476E-02
  32        7PZ      0.14791519351773E-02 -.87575819569860E-02 0.22170930578345E-01 -.58745691519967E-02 -.25831274351072E-02
  33        8XX      -.35092948011949E-04 0.14369836205268E-02 -.43676811035679E-03 0.28603961033483E-02 -.64420794801122E-02
  34        8YY      -.64651154057677E-04 0.12078941290126E-02 -.73134488525505E-03 -.16429487718226E-02 -.45149296205902E-02
  35        8ZZ      -.27099543969021E-03 -.29203057814520E-03 0.51314884594745E-03 -.23189224564254E-02 0.22262630503275E-02
  36        8XY      -.73711159992921E-04 0.19382726019415E-02 -.11248419874999E-02 0.51083159860805E-02 -.12524742764190E-02
  37        8XZ      -.34860529637066E-05 -.17156242993131E-03 0.29580552078426E-04 0.85083727418224E-04 0.20256630590626E-03
  38        8YZ      -.85061045754022E-04 -.22640759627612E-03 0.71825396498588E-04 0.13991518518279E-02 0.37090166446657E-02
  39 3   N  1S       0.23663809811030E-04 -.16615083346734E+00 0.14546019571229E-01 -.51476967817633E-01 0.56175454897975E-01
  40        2S       0.10538790650388E-03 0.35394680637920E+00 -.32002985674378E-01 0.11605908239907E+00 -.12994716099284E+00
  41        3S       -.48846481448296E-03 0.27354793808555E+00 -.31447443669731E-01 0.13421827925711E+00 -.16268515716921E+00
  42        4S       0.27569840903187E-04 0.12800588054454E+00 0.33681528609955E-01 -.24067486739974E+00 0.12495079471213E+00
  43        5S       -.18214612750232E-03 -.23016582651188E-01 0.75631419906609E-02 -.42117251171435E-02 0.15218285699556E-02
  44        6S       0.60012003605557E-04 0.43276578754157E-02 -.77594813137019E-03 0.66282901339422E-03 -.67381434752820E-03
  45        7PX      -.17815918355471E-05 -.24742596903794E-01 -.26594223442700E+00 0.32243675567237E-04 -.17291709092569E-02
  46        7PY      -.41916742300815E-04 -.33675062965288E-01 0.40905658756991E-01 0.25123653541221E+00 -.12014788917002E+00
  47        7PZ      -.37101593627421E-04 0.21007691514023E-01 0.10962386082023E+00 -.14466927521267E+00 0.10624978191657E+00
  48        8PX      -.19852167892155E-03 0.89901164144996E-02 -.35914975794139E-01 -.59003578600010E-02 0.15499890343803E-02
  49        8PY      -.29590844789420E-03 0.20817840874214E-01 0.53630326584438E-02 0.60889336297991E-01 -.39377953384154E-01
  50        8PZ      0.30833348628332E-03 -.17560634112960E-01 0.14719274944936E-01 -.33314387339207E-01 0.36093108961399E-01
  51        9PX      0.90815650030558E-03 -.46955521070711E-01 -.16092578970594E+00 -.40102842078042E-01 0.92352683793706E-02
  52        9PY      0.19670760005091E-02 -.54905408422931E-01 0.41951791858806E-01 0.13256408129894E-01 -.10872877943118E-01
  53        9PZ      -.11198683636831E-02 0.49859018220927E-01 0.57843536045591E-01 0.81070676831214E-02 0.37309017196091E-02
  54       10PX      -.28102087269490E-03 0.32597750293109E-02 0.94710214904825E-02 0.29487359411342E-02 -.14877714569635E-02
  55       10PY      -.15666907680362E-03 0.27830861581536E-02 -.12853453120489E-03 -.16799553169039E-02 0.78060135168638E-03
  56       10PZ      0.25652751112013E-03 -.31096847401243E-02 -.42456195092441E-02 0.42921195857631E-03 0.22906168671584E-04
  57       11PX      0.96611302952839E-04 -.99987510394782E-03 -.21019002953557E-02 -.73154882449825E-03 0.80940787120431E-04
  58       11PY      0.71356715227479E-04 -.81191858779909E-03 0.36815040237285E-03 0.46522508121438E-03 -.47678163453874E-03
  59       11PZ      -.55851027836846E-04 0.76222379379100E-03 0.86405184297022E-03 0.11137604407098E-03 -.81564381086200E-04
  60       12XX      0.54145248832680E-04 0.71137694148628E-02 0.34299399401189E-02 -.16100613513935E-01 0.10792956220316E-01
  61       12YY      0.22804972963219E-04 -.10522392736791E-01 -.89351502032076E-02 0.37976957544428E-02 0.12005594545996E-02
  62       12ZZ      0.65309273711711E-04 -.11789673148595E-01 0.54880030205107E-02 0.25401076512128E-02 0.68946788469278E-03
  63       12XY      -.27186764125633E-04 -.38122944123464E-02 0.18206120103013E-01 0.92606807615868E-02 -.92646152787575E-04
  64       12XZ      -.31809660801151E-04 -.12744589799549E-01 -.97092958069286E-02 0.29582704768000E-02 -.32671678768160E-02
  65       12YZ      -.34658147997327E-04 -.35835089992441E-02 -.31940664487228E-02 -.98146951924055E-02 0.40290068531442E-02
  66 4   H  1S       0.28274953892643E-04 0.13981061013163E-01 -.56524567874201E-03 0.73900821947736E-01 -.28498672662761E-02
  67        2S       -.58626547778997E-03 0.39635640240408E-02 -.10145417037938E-01 0.64329595537839E-02 0.50873254052802E-03
  68        3PX      -.53010679484947E-04 0.16133827343226E-02 -.30932338345862E-03 0.57842257610982E-02 0.55047543558639E-03
  69        3PY      -.40708626503787E-04 -.22864608797418E-02 0.17479758977787E-03 -.52904457442524E-02 0.20970712968548E-02
  70        3PZ      -.70570216952818E-04 0.51749809814925E-03 -.11345438311939E-03 0.32078474770816E-03 -.23908497442433E-03
  71 5   H  1S       -.31261478846757E-04 0.12876111449446E-01 -.11892193940514E-01 0.60887036772918E-01 -.36001331724622E-02
  72        2S       -.16286882185808E-04 0.12899848671049E-01 0.59530525968472E-02 0.11874784333036E-01 -.49469142521017E-02
  73        3PX      0.14406469747274E-04 0.11100517532991E-03 -.20884866470293E-04 -.11552580457696E-02 0.14745119607100E-02
  74        3PY      0.25192848286705E-04 0.22513594756644E-03 0.44787971145451E-03 0.25996763739030E-02 0.10985133045206E-02
  75        3PZ      0.99827938931135E-05 0.24053330586551E-02 -.15125069833769E-02 0.68235625832153E-02 -.12753241264932E-02
  76 6   O  1S       0.46054995000832E-04 -.11393443459937E+00 -.14370326916551E+00 0.54628980237538E-01 -.45006651515842E-01
  77        2S       0.19975476594708E-03 0.24329250810598E+00 0.31396796879474E+00 -.12374601614449E+00 0.10235759213804E+00
  78        3S       -.11261380611897E-02 0.24402162738303E+00 0.34894692312598E+00 -.14917468956075E+00 0.13335327960078E+00
  79        4S       0.26141311401112E-02 -.17345923444652E+00 -.23131797948866E+00 0.41994401573034E-01 -.39189159456100E-01
  80        5PX      0.14105719205844E-04 0.10431680633137E+00 0.81070962263179E-01 -.24501209386070E-01 -.28890403472447E-02
  81        5PY      0.18557557428905E-04 0.24428116252653E-01 0.32067286730760E-01 0.31240830164001E-01 -.22861495502003E-01
  82        5PZ      0.12879513774438E-04 -.62125498673916E-01 -.53952998336724E-01 -.71812524338509E-02 0.22568128119855E-01
  83        6PX      -.22491410791242E-03 0.46392884525810E-01 0.38019706508152E-01 -.19064677277750E-01 0.42394594114886E-02
  84        6PY      -.83233549474868E-04 0.78164982414525E-02 0.19259625750613E-01 0.13447231502858E-01 -.92617566855178E-02
  85        6PZ      0.12845709948412E-04 -.26070704224474E-01 -.27243944476231E-01 0.89862960296140E-03 0.72513451338658E-02
  86        7PX      0.58479642156001E-03 -.43847932940957E-01 -.44646896335121E-01 0.18181190869646E-01 -.11643421561892E-01
  87        7PY      -.86649280401396E-04 -.31672283096558E-02 -.24758443964739E-01 -.28541234160722E-02 0.42425132157297E-03
  88        7PZ      0.29563677398381E-04 0.22494555237583E-01 0.31474885259847E-01 -.35581684298319E-02 0.15379317931397E-02
  89        8XX      0.93314271093078E-04 0.10346041197786E-01 0.53730214495052E-05 -.34821327984647E-02 -.42217713487206E-03
  90        8YY      0.13457909193958E-03 -.10636329074077E-01 -.91339711107903E-02 0.47766080548164E-02 -.24053183723872E-02
  91        8ZZ      0.14320991004061E-03 -.30121047343055E-02 -.44342061877315E-02 0.35387726661562E-02 -.35420289568939E-02
  92        8XY      -.21819443151179E-04 0.55448943036331E-02 0.70054657717224E-02 0.48515420556252E-02 -.28970835049376E-02
  93        8XZ      0.17320230829514E-04 -.13662178707994E-01 -.81743198326577E-02 -.35289118253991E-03 0.29504150727902E-02
  94        8YZ      0.37987527893269E-05 -.19403213324349E-02 -.30512814612680E-02 -.45727465853576E-02 0.32041193208066E-02
  95 7   O  1S       0.32153276684516E-04 -.89467640070905E-01 0.14443463425166E+00 0.95817011869522E-01 -.41508226681221E-01
  96        2S       0.13881622198558E-03 0.19165114998896E+00 -.31253383993685E+00 -.21311741705051E+00 0.92854360191079E-01
  97        3S       -.48924607277642E-03 0.17602127552131E+00 -.34746672836405E+00 -.25680163763564E+00 0.12465559184399E+00
  98        4S       0.17539311568627E-03 -.69325469373149E-01 0.21882455098598E+00 0.12875245461765E+00 -.56493109054158E-01
  99        5PX      -.15382787385551E-04 -.77550466792036E-01 0.73496814463503E-01 0.37291067481379E-01 0.11927814189248E-01
 100        5PY      0.38900073096342E-04 0.60913418760279E-01 -.77413331166729E-01 0.79745799859995E-02 -.17389304912677E-01
 101        5PZ      -.19380663197706E-05 0.62351932195627E-02 0.37512666713476E-02 -.24457997875842E-01 0.15100003487405E-01
 102        6PX      0.15401895878618E-03 -.34886525454927E-01 0.35186783251083E-01 0.24316731014901E-01 0.78617106601471E-03
 103        6PY      -.14634230859939E-03 0.24880007503052E-01 -.43163210411028E-01 -.37173694236070E-02 -.38585819764482E-02
 104        6PZ      -.25429446374510E-04 0.39937484943239E-02 0.51434352708850E-02 -.10645426620694E-01 0.75500590246531E-02
 105        7PX      -.58206924966612E-03 0.30714161615181E-01 -.41134147302777E-01 -.26354639147778E-01 0.11180084452833E-01
 106        7PY      -.78914943773905E-03 -.96020777324949E-02 0.47639025153007E-01 0.24023567514615E-01 -.86278183682565E-02
 107        7PZ      0.11217721800378E-03 -.98558213534974E-02 -.54891100212700E-02 0.44734668100154E-02 -.31144524470083E-02
 108        8XX      0.99074061919797E-04 0.87370834830077E-02 0.18879803815814E-02 -.24073507296556E-02 -.13580777303868E-02
 109        8YY      0.37717899920455E-04 0.66677937992483E-03 -.81477608460284E-03 0.86527170290439E-02 -.42956270364295E-02
 110        8ZZ      0.13583676876502E-03 -.73105224240989E-02 0.10756050162500E-01 0.39992536974680E-02 -.68051655438865E-03
 111        8XY      0.99009862299854E-05 -.13940554573998E-01 0.12767739166987E-01 0.10914440007599E-02 0.33305819153811E-02
 112        8XZ      0.16149303783391E-04 -.18368778451162E-02 -.19649150970435E-02 0.31906619975610E-02 -.22732702021794E-02
 113        8YZ      -.12888451233936E-04 0.20471876878090E-02 -.72441972079765E-04 -.37801636105768E-02 0.21667171706844E-02
 114 8   C  1S       0.99331635821577E+00 -.16311907644640E-02 0.20949486062001E-02 -.31041621060080E-01 -.12189574769062E+00
 115        2S       0.47408713247852E-01 0.73665261835341E-03 -.41240166898837E-02 0.56345230141729E-01 0.22531657979973E+00
 116        3S       -.19265699667058E-01 0.78287547186428E-02 0.53337658072222E-02 0.42961064831385E-01 0.20569927089503E+00
 117        4S       -.31826630614050E-02 0.15560338653347E-01 -.41024466161166E-01 0.11075995169474E-01 0.12937175354617E-03
 118        5PX      -.16434953996808E-03 -.61346473605900E-03 0.39834279710746E-03 -.90223532696128E-02 -.68205720337535E-02
 119        5PY      -.14085584928128E-03 -.10063056112605E-02 0.14759980708235E-02 -.13352596812605E-01 -.23034869434352E-01
 120        5PZ      -.20234573251745E-03 -.67830176337708E-03 0.14916515600171E-02 -.20659445335742E-01 -.48304057002311E-01
 121        6PX      0.10426716550961E-02 -.21548429207300E-02 0.17116036107441E-02 -.52781534819925E-02 -.61575123755746E-02
 122        6PY      0.14707831465622E-02 -.46458651243673E-02 0.16693537322990E-02 -.57005452787243E-02 -.60122127104579E-02
 123        6PZ      0.22706992775522E-02 -.32862976687596E-02 -.12838565864552E-02 -.45978923132691E-02 -.13927134223710E-01
 124        7PX      0.35912716083951E-04 0.14732864897927E-02 0.19074021534929E-02 -.14561301466801E-02 0.27505772380579E-02
 125        7PY      0.34065466683876E-03 -.16582316355683E-02 0.57868581793279E-02 -.56196337272430E-02 0.37557382534259E-02
 126        7PZ      0.38604675172168E-03 -.34604600111638E-02 0.83574070140370E-02 -.10545693058243E-02 0.18170110561288E-02
 127        8XX      -.77197971972571E-02 -.44835336020909E-03 0.22919314245111E-03 -.11144494358984E-02 -.51723091195678E-02
 128        8YY      -.75238241781552E-02 -.92399022654130E-04 -.31281253728084E-04 -.46399833542296E-03 -.33976533162539E-02
 129        8ZZ      -.79420359241676E-02 -.12521169092424E-03 -.17976721352013E-03 0.18080896595171E-02 0.23951767626055E-02
 130        8XY      0.26205802339995E-03 0.25755468106586E-03 -.44781235632751E-04 0.99817260863211E-03 0.19099524162288E-02
 131        8XZ      -.12392994089799E-04 0.13060803439884E-03 -.11364776595629E-03 0.12328107080747E-02 0.15773368153599E-02
 132        8YZ      -.33847672125752E-03 0.26125076452525E-03 -.20394241319433E-03 0.20602785523055E-02 0.26969196414988E-02
 133 9   H  1S       -.19035929543826E-03 0.35210807860976E-02 -.85025116142635E-02 0.42669160063021E-01 0.94818759267589E-01
 134        2S       -.13629732653345E-02 0.86855667130392E-02 -.21265266001377E-02 0.14892990495696E-02 0.15090547633590E-01
 135        3PX      -.85361520121810E-05 -.85732275185929E-03 0.86031745547502E-03 -.31164564587514E-02 -.53856187307353E-02
 136        3PY      -.11182564715238E-04 -.27588779875292E-03 0.37820328610408E-03 0.31191838932947E-02 0.63195963839637E-02
 137        3PZ      -.92187860545944E-04 0.38833602405856E-03 -.17372801531214E-03 0.70334165209760E-03 0.19758192387519E-02
 138 10  H  1S       -.81583530769045E-04 0.12466172985213E-02 -.30796305536538E-02 0.37606939496331E-01 0.93971862667221E-01
 139        2S       -.35510378561460E-03 -.39227037250288E-03 -.27436713876903E-02 -.68831631482781E-03 0.16452079750200E-01
 140        3PX      -.15902483909998E-04 0.22696115464490E-03 -.89987382288873E-04 -.18041563478774E-03 0.14321817843288E-04
 141        3PY      -.56718088170252E-04 0.18632503031328E-03 0.38631535828451E-03 -.27834233964971E-02 -.56917217989784E-02
 142        3PZ      -.98438791564938E-05 0.82573629306274E-04 -.15370711551820E-03 0.27398710697453E-02 0.63798711896840E-02
 143 11  H  1S       -.27490076809197E-03 0.91462798774327E-03 -.15416816980109E-02 0.18806089718200E-01 0.79791863012026E-01
 144        2S       0.34475514821422E-02 -.41752375943931E-03 -.29634300089265E-03 0.42324182802991E-02 0.91982487246155E-02
 145        3PX      -.25152821043267E-04 -.98382440720020E-04 0.62998673223939E-04 -.26329356439751E-03 0.42063096840149E-03
 146        3PY      -.19046878022856E-03 -.18090061813275E-03 0.99519165953287E-04 0.93161974566846E-03 0.50017110500089E-02
 147        3PZ      0.80274652122283E-04 -.25026342535791E-03 0.25494603745237E-03 -.15587775554114E-02 -.52648181087689E-02
 148 12  H  1S       -.42590739223074E-03 0.30146884970111E-03 -.10328136899778E-02 0.14112205988460E-01 0.76871366827768E-01
 149        2S       0.28204936273041E-02 0.17112722998551E-02 -.27297193341321E-02 0.32720603511067E-02 0.13885202572664E-01
 150        3PX      0.16589668208137E-03 -.84744923470749E-04 0.11558553545751E-03 -.90164869548729E-03 -.43551012205298E-02
 151        3PY      0.15523786296873E-03 -.49024302074821E-04 0.14621491248301E-03 -.10819793963950E-02 -.54528417989426E-02
 152        3PZ      -.68397205883270E-04 0.69959093633511E-04 0.18655818260247E-04 -.13782786041853E-03 -.71227432291177E-03
 153 13  H  1S       0.20273205183590E-03 0.29989375026599E-03 -.67497927282361E-03 0.19480770248524E-01 0.65069262441194E-01
 154        2S       0.27164522143277E-02 0.58517375512942E-03 -.28183648773441E-02 0.46687673638087E-02 0.13094414994617E-01
 155        3PX      -.20048583608992E-03 0.46067497523529E-05 -.65675797637328E-04 0.12626651157558E-02 0.59706872815241E-02
 156        3PY      0.62507692939917E-04 -.13562354545179E-03 0.77215948469350E-04 -.14360555288020E-02 -.28075297814743E-02
 157        3PZ      -.58305737088148E-05 0.76689449811728E-05 -.28517950499119E-04 -.64770742822302E-03 -.78304850848927E-03
                          11        12        13        14        15
                           O         O         O         O         O
     Eigenvalues --  -.77483040486957E+00 -.69621750314101E+00 -.64843333682431E+00 -.64759517319665E+00 -.61217610799524E+00
   1 1   C  1S       0.52670478336811E-01 0.80642281163635E-01 0.26376247169192E-01 -.13802734514171E-01 0.39847017022113E-01
   2        2S       -.96647190759643E-01 -.15721351653162E+00 -.47806958228823E-01 0.29782962870024E-01 -.74223334434809E-01
   3        3S       -.13482102483517E+00 -.22689732688172E+00 -.73100978097571E-01 0.26347149940428E-01 -.12698183392168E+00
   4        4S       0.32563248042703E-01 0.19181797115551E-01 0.68446131682849E-02 0.67772873412597E-01 -.94300524271759E-02
   5        5PX      -.72684393797087E-01 0.12163889333948E+00 0.13106547441995E+00 -.20285097597166E-01 -.10656152850318E+00
   6        5PY      -.10044026165766E+00 -.68411498812012E-01 -.17487477183064E+00 0.19550090576257E+00 -.10011397026511E+00
   7        5PZ      0.10324644895012E+00 0.71536296537570E-01 0.14036193682219E+00 0.16839601640886E+00 0.10243598636990E+00
   8        6PX      -.26721072629743E-01 0.41658643545502E-01 0.53158640750682E-01 -.15858966694531E-01 -.26572586718922E-01
   9        6PY      -.60013556952500E-02 -.99285128981333E-02 -.65985495454208E-01 0.87849415251539E-01 -.46367364218594E-01
  10        6PZ      0.30612385430874E-01 0.11756052551685E-01 0.49793944650726E-01 0.75488478782804E-01 0.29267761624479E-01
[...]
 100        5PY      -.89059875168057E-01 0.22126611533843E-01
 101        5PZ      0.42979674876955E-02 0.12002999617521E-01
 102        6PX      -.64021845618317E+00 -.14964253596714E+00
 103        6PY      0.85089718528316E+00 0.23238026411092E+00
 104        6PZ      -.11433002388732E+00 -.10173772684871E+00
 105        7PX      0.13151647949531E+01 0.34581552893161E-01
 106        7PY      -.17285253507950E+01 -.16842649944658E+00
 107        7PZ      0.26514515917786E+00 0.25707667175022E-02
 108        8XX      -.13897560039936E+01 0.92522476847443E-01
 109        8YY      -.12885326969220E+01 0.14284123895189E+00
 110        8ZZ      -.15058278557626E+01 0.80379498707252E-01
 111        8XY      -.16853581113800E+00 -.89435639007350E-01
 112        8XZ      0.23090711898869E-01 0.16448569251019E-01
 113        8YZ      -.42200782405563E-01 -.52169172485408E-01
 114 8   C  1S       -.10661749351620E+00 0.17302922306523E+00
 115        2S       0.53917673814340E+00 -.95052139753175E+00
 116        3S       0.36668546047873E+00 -.15655057139832E+01
 117        4S       0.97405109406395E+00 0.45040126516088E-01
 118        5PX      -.28680637809859E-04 0.26492002560375E-01
 119        5PY      0.31310509220977E-01 0.12415561905601E-01
 120        5PZ      0.14870610842803E-01 0.35495807916432E-01
 121        6PX      -.18445086613247E+00 -.17062823000421E-01
 122        6PY      -.23208216269694E+00 0.10248193112134E+00
 123        6PZ      -.24959278154354E-01 0.36512370206045E+00
 124        7PX      -.77353999105804E-01 -.42699592164373E-01
 125        7PY      -.14991937016522E+00 -.65759568725113E-01
 126        7PZ      -.13904177281309E+00 0.15988398801890E-01
 127        8XX      -.43097277308055E+00 0.70456734119103E+00
 128        8YY      -.47532030573712E+00 0.72788478986224E+00
 129        8ZZ      -.42086281304356E+00 0.75518682346006E+00
 130        8XY      -.46048676927577E-01 0.52274182571057E-01
 131        8XZ      0.58333825171462E-02 0.28155943592364E-01
 132        8YZ      0.22987148019129E-01 -.89839225286100E-02
 133 9   H  1S       -.17799980945416E-01 0.26215820406294E+00
 134        2S       0.68694959705205E-01 -.60448570989088E+00
 135        3PX      0.30105816982157E-01 -.21322943022132E+00
 136        3PY      -.71643883236312E-01 0.19280593747937E+00
 137        3PZ      -.34568470071965E-01 0.14468292547741E-01
 138 10  H  1S       -.96189664801629E-01 0.18478797287021E+00
 139        2S       0.20748175722699E+00 -.42127191936023E+00
 140        3PX      -.51711302892258E-02 0.64983892122162E-02
 141        3PY      0.60689093361792E-01 -.18597923732527E+00
 142        3PZ      -.85913467222338E-01 0.16657181868030E+00
 143 11  H  1S       0.58113931609579E-01 -.88635046538940E-01
 144        2S       -.18551854880372E+00 0.85200442024784E-01
 145        3PX      0.86406395116639E-03 0.10526013838725E-01
 146        3PY      0.36964747051397E-01 -.75686435493799E-01
 147        3PZ      -.65064126613516E-01 0.11244959632137E+00
 148 12  H  1S       0.11927516940881E+00 -.78524774325339E-01
 149        2S       0.14966040625104E+00 0.25887035564691E+00
 150        3PX      -.74352825145991E-01 0.75481466175858E-01
 151        3PY      -.81027832935541E-01 0.80058239860085E-01
 152        3PZ      -.63151362918357E-02 -.11504217419206E-01
 153 13  H  1S       -.21345192366993E-01 -.38331516362321E-01
 154        2S       0.85307811193876E-01 0.14011581246970E+00
 155        3PX      0.29786073915084E-01 -.91026690859682E-01
 156        3PY      -.33917662397969E-01 0.43121070875979E-01
 157        3PZ      -.17654660989595E-01 0.54600525399086E-01
          Condensed to atoms (all electrons):
              1          2          3          4          5          6
     1  C    5.644513   0.124201   0.138127   0.407448   0.356173  -0.088848
     2  C    0.124201   5.549323  -0.086641  -0.063884  -0.010944   0.013848
     3  N    0.138127  -0.086641   6.330617  -0.051611  -0.020261   0.359797
     4  H    0.407448  -0.063884  -0.051611   0.515615  -0.020584   0.009050
     5  H    0.356173  -0.010944  -0.020261  -0.020584   0.514057  -0.008184
     6  O   -0.088848   0.013848   0.359797   0.009050  -0.008184   7.789913
     7  O   -0.097679  -0.004157   0.346724   0.007458  -0.018644  -0.054010
     8  C   -0.086225   0.154743   0.053079  -0.002151   0.008595  -0.006789
     9  H   -0.044965   0.361345  -0.007005   0.006017  -0.006297   0.000156
    10  H   -0.029114   0.383058   0.004023  -0.003320  -0.004156   0.000010
    11  H    0.001737  -0.039712   0.008512  -0.000136  -0.000204  -0.000867
    12  H    0.023318  -0.050874  -0.005815   0.000118  -0.000122   0.000206
    13  H   -0.041672  -0.091592   0.004328   0.006821   0.000519  -0.001583
              7          8          9         10         11         12
     1  C   -0.097679  -0.086225  -0.044965  -0.029114   0.001737   0.023318
     2  C   -0.004157   0.154743   0.361345   0.383058  -0.039712  -0.050874
     3  N    0.346724   0.053079  -0.007005   0.004023   0.008512  -0.005815
     4  H    0.007458  -0.002151   0.006017  -0.003320  -0.000136   0.000118
     5  H   -0.018644   0.008595  -0.006297  -0.004156  -0.000204  -0.000122
     6  O   -0.054010  -0.006789   0.000156   0.000010  -0.000867   0.000206
     7  O    7.977494  -0.023175   0.001114   0.003557   0.004345   0.000630
     8  C   -0.023175   5.155057   0.013072  -0.020845   0.397239   0.405773
     9  H    0.001114   0.013072   0.508137  -0.031959  -0.004839  -0.000754
    10  H    0.003557  -0.020845  -0.031959   0.532281   0.003633  -0.002307
    11  H    0.004345   0.397239  -0.004839   0.003633   0.476611  -0.012135
    12  H    0.000630   0.405773  -0.000754  -0.002307  -0.012135   0.482727
    13  H   -0.002089   0.440300   0.007014  -0.005668  -0.031868  -0.021660
             13
     1  C   -0.041672
     2  C   -0.091592
     3  N    0.004328
     4  H    0.006821
     5  H    0.000519
     6  O   -0.001583
     7  O   -0.002089
     8  C    0.440300
     9  H    0.007014
    10  H   -0.005668
    11  H   -0.031868
    12  H   -0.021660
    13  H    0.622168
 Mulliken atomic charges:
              1
     1  C   -0.307012
     2  C   -0.238715
     3  N   -0.073875
     4  H    0.189160
     5  H    0.210052
     6  O   -0.012701
     7  O   -0.141567
     8  C   -0.488674
     9  H    0.198964
    10  H    0.170806
    11  H    0.197684
    12  H    0.180896
    13  H    0.114981
 Sum of Mulliken atomic charges =   0.00000
 Mulliken charges with hydrogens summed into heavy atoms:
              1
     1  C    0.092200
     2  C    0.131055
     3  N   -0.073875
     6  O   -0.012701
     7  O   -0.141567
     8  C    0.004888
 Sum of Mulliken charges with hydrogens summed into heavy atoms =   0.00000
 Electronic spatial extent (au):  <R**2>=           4639.7261
 Charge=             -0.0000 electrons
 Dipole moment (field-independent basis, Debye):
    X=              0.9025    Y=              3.5183    Z=             -2.2111  Tot=              4.2523
 Quadrupole moment (field-independent basis, Debye-Ang):
   XX=            -47.2845   YY=            -40.2783   ZZ=            -42.0260
   XY=            -15.5441   XZ=             13.5431   YZ=              6.0737
 Traceless Quadrupole moment (field-independent basis, Debye-Ang):
   XX=             -4.0883   YY=              2.9180   ZZ=              1.1703
   XY=            -15.5441   XZ=             13.5431   YZ=              6.0737
 Octapole moment (field-independent basis, Debye-Ang**2):
  XXX=            594.2332  YYY=             -2.3986  ZZZ=           -190.9272  XYY=            185.0989
  XXY=             70.3220  XXZ=           -143.4171  XZZ=            201.0733  YZZ=              5.9390
  YYZ=            -69.4038  XYZ=            -28.3014
 Hexadecapole moment (field-independent basis, Debye-Ang**3):
 XXXX=          -5542.9078 YYYY=           -379.5781 ZZZZ=           -751.5406 XXXY=           -405.8211
 XXXZ=           1343.7379 YYYX=            -58.0283 YYYZ=             -8.4922 ZZZX=            900.1427
 ZZZY=             -9.0600 XXYY=           -948.3537 XXZZ=          -1138.5498 YYZZ=           -207.3473
 XXYZ=            136.9448 YYXZ=            324.5879 ZZXY=            -56.2363
 N-N= 2.498177164542D+02 E-N=-1.254717673703D+03  KE= 3.206879031245D+02
 Orbital energies and kinetic energies (alpha):
                                 1                 2
   1         O       -.19342444207083E+02 0.29037377506321E+02
   2         O       -.19317578551092E+02 0.29038033837702E+02
   3         O       -.14705423623707E+02 0.21977174258551E+02
   4         O       -.10373114538252E+02 0.15897106239051E+02
   5         O       -.10322822172282E+02 0.15898578772031E+02
   6         O       -.10317932448365E+02 0.15899904984162E+02
   7         O       -.13086684761535E+01 0.24024556828355E+01
   8         O       -.11377804879491E+01 0.27415342821105E+01
   9         O       -.98243483436162E+00 0.20057409526239E+01
  10         O       -.87939536472206E+00 0.15873373909957E+01
  11         O       -.77483040486957E+00 0.15086454485513E+01
  12         O       -.69621750314101E+00 0.20510253521491E+01
  13         O       -.64843333682431E+00 0.18789941425449E+01
  14         O       -.64759517319665E+00 0.14935682660380E+01
  15         O       -.61217610799524E+00 0.20944323350616E+01
  16         O       -.57134659553789E+00 0.12178646780964E+01
  17         O       -.54275577714030E+00 0.13042041839312E+01
  18         O       -.49821947310218E+00 0.13051093774660E+01
  19         O       -.48997544504883E+00 0.12146327931085E+01
  20         O       -.43502540355500E+00 0.14370009199587E+01
  21         O       -.42807198575547E+00 0.12517872803299E+01
  22         O       -.41092716913174E+00 0.22678928178987E+01
  23         O       -.39877736050692E+00 0.23488489281846E+01
  24         O       -.38544529927896E+00 0.24847011325707E+01
  25         V       -.48709264585007E-01 0.23632900058640E+01
  26         V       0.78406746230797E-02 0.38835346589500E-01
  27         V       0.13810189858073E-01 0.21508022927725E-01
  28         V       0.14208414037338E-01 0.15909971423264E-01
  29         V       0.16851225155390E-01 0.15144764333877E-01
  30         V       0.48037390370187E-01 0.24265694439832E+00
  31         V       0.63959366673454E-01 0.19000318679811E+00
  32         V       0.65995269424385E-01 0.15157497936143E+00
  33         V       0.71428242703409E-01 0.14689025578468E+00
  34         V       0.97364637338079E-01 0.23702341676462E+00
  35         V       0.99554893237275E-01 0.24006551493611E+00
  36         V       0.10678012676903E+00 0.34346840295394E+00
  37         V       0.11994388487970E+00 0.32300520964618E+00
  38         V       0.13048739330449E+00 0.30500038152064E+00
  39         V       0.14127276211841E+00 0.52336032973610E+00
  40         V       0.14796754783536E+00 0.39121483711769E+00
  41         V       0.15076276473346E+00 0.36899354389718E+00
  42         V       0.15955026927335E+00 0.31500219002600E+00
  43         V       0.17057578112185E+00 0.33297073045395E+00
  44         V       0.18277168410258E+00 0.10422050612600E+01
  45         V       0.19982441341074E+00 0.78313872561319E+00
  46         V       0.20570457855162E+00 0.67798821885143E+00
  47         V       0.22398438724861E+00 0.10263469603744E+01
  48         V       0.23903345089071E+00 0.15849779359326E+01
  49         V       0.24498375123236E+00 0.98285113483717E+00
  50         V       0.25805583099605E+00 0.10813145419549E+01
  51         V       0.26108788498984E+00 0.12652447739013E+01
  52         V       0.26338490764710E+00 0.10394492008719E+01
  53         V       0.28289424931209E+00 0.10358752556995E+01
  54         V       0.30989707819571E+00 0.98167580873347E+00
  55         V       0.32157491834789E+00 0.94029608846161E+00
  56         V       0.32659042304412E+00 0.10383610190017E+01
  57         V       0.33784443456432E+00 0.10193458505219E+01
  58         V       0.34400965250157E+00 0.79721629004448E+00
  59         V       0.35386938129282E+00 0.10303129708848E+01
  60         V       0.36867196942244E+00 0.80809680106008E+00
  61         V       0.37356978484482E+00 0.81754543810956E+00
  62         V       0.38790279748386E+00 0.10430819596346E+01
  63         V       0.39613762965834E+00 0.11174535116510E+01
  64         V       0.41369888554454E+00 0.17612352278796E+01
  65         V       0.42923525586372E+00 0.18216540989688E+01
  66         V       0.44279586724989E+00 0.15779797949597E+01
  67         V       0.47189522575027E+00 0.12446111446476E+01
  68         V       0.49949154817760E+00 0.12161056441109E+01
  69         V       0.55530154406673E+00 0.12338057359272E+01
  70         V       0.70043645273002E+00 0.24458700986992E+01
  71         V       0.71837758977245E+00 0.19141954192238E+01
  72         V       0.73170048417461E+00 0.20338696788732E+01
  73         V       0.75223841181422E+00 0.21031058969173E+01
  74         V       0.75855463362115E+00 0.21245530024287E+01
  75         V       0.78960337282235E+00 0.25028204335617E+01
  76         V       0.81241423603319E+00 0.21866354071478E+01
  77         V       0.86574191675707E+00 0.21924194244909E+01
  78         V       0.92904759955938E+00 0.23688325650614E+01
  79         V       0.93935347895739E+00 0.23875767831045E+01
  80         V       0.98031606282189E+00 0.24498811799057E+01
  81         V       0.10006619981431E+01 0.25281025478237E+01
  82         V       0.10580080865969E+01 0.25757893451167E+01
  83         V       0.10732957164424E+01 0.24564512095682E+01
  84         V       0.10887789524610E+01 0.23147787140433E+01
  85         V       0.11287062996081E+01 0.25855850599717E+01
  86         V       0.11414528735644E+01 0.24586625442673E+01
  87         V       0.11888626538342E+01 0.26826743758234E+01
  88         V       0.12034331032040E+01 0.25024806465624E+01
  89         V       0.12343202554085E+01 0.27986106367533E+01
  90         V       0.12567155150055E+01 0.33366145264419E+01
  91         V       0.12955839218136E+01 0.30610137387535E+01
  92         V       0.13187858231601E+01 0.25305308572824E+01
  93         V       0.13275165090406E+01 0.31485455437493E+01
  94         V       0.13475804903332E+01 0.29483189700800E+01
  95         V       0.13540797514910E+01 0.32642085646654E+01
  96         V       0.13877912557045E+01 0.29859999447611E+01
  97         V       0.14087303387115E+01 0.27236494059149E+01
  98         V       0.14580365407866E+01 0.25690157159392E+01
  99         V       0.14924605453410E+01 0.26320218183202E+01
 100         V       0.15588744203069E+01 0.25737674862880E+01
 101         V       0.15698811401725E+01 0.27227028283630E+01
 102         V       0.16632389431145E+01 0.27634472490044E+01
 103         V       0.17366558515626E+01 0.27657231196567E+01
 104         V       0.17790696854054E+01 0.28421255166402E+01
 105         V       0.18016325606507E+01 0.29827977397822E+01
 106         V       0.18284947896165E+01 0.29660867052661E+01
 107         V       0.18563104194588E+01 0.29170121942638E+01
 108         V       0.18799828706518E+01 0.28757912887845E+01
 109         V       0.19245630034239E+01 0.32067192130157E+01
 110         V       0.19345849205300E+01 0.29973002654039E+01
 111         V       0.19576240668825E+01 0.30969463124019E+01
 112         V       0.19993253390734E+01 0.29560919500302E+01
 113         V       0.20137158342704E+01 0.33429729223924E+01
 114         V       0.20418654287649E+01 0.34011359914044E+01
 115         V       0.20653187691407E+01 0.30938798764316E+01
 116         V       0.20765500275326E+01 0.32488896322106E+01
 117         V       0.21364759902024E+01 0.33518364319861E+01
 118         V       0.21463883182430E+01 0.32793400972277E+01
 119         V       0.21741299304578E+01 0.34628206865980E+01
 120         V       0.22556342977964E+01 0.35184002870062E+01
 121         V       0.22846401656624E+01 0.33100476635212E+01
 122         V       0.23373007005895E+01 0.33678927454610E+01
 123         V       0.23514533633520E+01 0.34644190655977E+01
 124         V       0.23550553165039E+01 0.35143270859722E+01
 125         V       0.24264835282221E+01 0.34502982415736E+01
 126         V       0.24392590069315E+01 0.35682937454287E+01
 127         V       0.24944577975572E+01 0.36942858427266E+01
 128         V       0.25200527077836E+01 0.35604114524863E+01
 129         V       0.25413692160102E+01 0.35522402386570E+01
 130         V       0.25720720048412E+01 0.38307324079344E+01
 131         V       0.26297479600977E+01 0.36341049135018E+01
 132         V       0.26464606802054E+01 0.38502416560249E+01
 133         V       0.27254801283973E+01 0.39518929732769E+01
 134         V       0.27583069013556E+01 0.38312037011447E+01
 135         V       0.27958774356564E+01 0.38214390148023E+01
 136         V       0.28313357508745E+01 0.39216518150394E+01
 137         V       0.29069371081100E+01 0.40279253498714E+01
 138         V       0.29406293534789E+01 0.39617243378027E+01
 139         V       0.29738687921836E+01 0.43465807685232E+01
 140         V       0.30080658363038E+01 0.42165352633307E+01
 141         V       0.30438094801815E+01 0.47735109717196E+01
 142         V       0.30778322201019E+01 0.47312501216455E+01
 143         V       0.31340625196276E+01 0.42549826076903E+01
 144         V       0.32218497498399E+01 0.45160785519466E+01
 145         V       0.32405884083950E+01 0.48177722227782E+01
 146         V       0.33110295273841E+01 0.47351006916450E+01
 147         V       0.35714575951807E+01 0.52667253746921E+01
 148         V       0.35758081873356E+01 0.53130697275656E+01
 149         V       0.36079447089912E+01 0.54075056246169E+01
 150         V       0.36927774103025E+01 0.54365497007660E+01
 151         V       0.38319588970839E+01 0.57546205099052E+01
 152         V       0.42424701863040E+01 0.10441932845179E+02
 153         V       0.44145551784637E+01 0.11409023397620E+02
 154         V       0.44745445929636E+01 0.10069352121094E+02
 155         V       0.46608874921155E+01 0.10689499987218E+02
 156         V       0.47063334918690E+01 0.12084237922467E+02
 157         V       0.47587537393977E+01 0.10527001850176E+02
 Total kinetic energy from orbitals= 3.206879031245D+02
 No NMR shielding tensors so no spin-rotation constants.
 Leave Link  601 at Thu Oct 13 23:30:03 2022, MaxMem= 3276800000 cpu:       2.2
 (Enter /local/g09-source/g09/l9999.exe)

 Test job not archived.
 1\1\GINC-WUX36\SP\RwB97XD\Gen\C3H7N1O2\ISSLERK\13-Oct-2022\0\\#p wB97X
 D/GEN 6D Iop(6/7=3) Iop(9/40=14) scf(maxcyc=200,conver=8) nosym Guess(
 Read,TCheck) GFInput\\Comment\\0,1\C,0,-4.957694381,0.308933602,0.8729
 84983\C,0,-3.608305071,1.076411821,0.98294993\N,0,-5.154897276,-0.7312
 56359,1.657660077\H,0,-5.757245359,1.016269173,0.901982593\H,0,-4.8086
 02111,-0.138329698,-0.215204747\O,0,-6.234913203,-0.987642768,2.293957
 534\O,0,-4.116188347,-1.545960388,1.561971626\C,0,-3.481606169,1.71273
 4644,2.445498285\H,0,-2.951933253,0.363796541,0.752199066\H,0,-3.60467
 4382,1.768329278,0.192706368\H,0,-3.527168539,0.955144931,3.134446558\
 H,0,-2.80305342,2.497332537,2.445154492\H,0,-4.637021556,2.13106946,2.
 338245905\\Version=EM64L-G09RevA.02\HF=-323.4691302\RMSD=7.076e-09\Dip
 ole=0.3550613,1.3842185,-0.8699039\Quadrupole=-3.0395155,2.1694504,0.8
 700651,-11.5566602,10.0689411,4.5156777\PG=C01 [X(C3H7N1O2)]\\@


 ALL MY ATTEMPTS TO ADAPT THE THEORETICAL FOUNDATIONS OF PHYSICS
 TO THESE NEW NOTIONS FAILED COMPLETELY. IT WAS AS IF THE GROUND HAD
 BEEN PULLED OUT FROM UNDER ONE WITH NO FIRM FOUNDATION TO BE SEEN ANYWHERE,
 UPON WHICH ONE COULD HAVE BUILT.  -- A.EINSTEIN
 Job cpu time:  0 days  0 hours  3 minutes 58.2 seconds.
 File lengths (MBytes):  RWF=     19 Int=      0 D2E=      0 Chk=      2 Scr=      1
 Normal termination of Gaussian 09 at Thu Oct 13 23:30:03 2022.
