 Entering Gaussian System, Link 0=g09
 Input=an.in2
 Output=an.log2
 Initial command:
 /local/g09-source/g09/l1.exe /scratch/1505212/TRAJ_40/Gau-2205.inp -scrdir=/scratch/1505212/TRAJ_40/
 Entering Link 1 = /local/g09-source/g09/l1.exe PID=      2208.
  
 Copyright (c) 1988,1990,1992,1993,1995,1998,2003,2009, Gaussian, Inc.
                  All Rights Reserved.
  
 This is part of the Gaussian(R) 09 program.  It is based on
 the Gaussian(R) 03 system (copyright 2003, Gaussian, Inc.),
 the Gaussian(R) 98 system (copyright 1998, Gaussian, Inc.),
 the Gaussian(R) 94 system (copyright 1995, Gaussian, Inc.),
 the Gaussian 92(TM) system (copyright 1992, Gaussian, Inc.),
 the Gaussian 90(TM) system (copyright 1990, Gaussian, Inc.),
 the Gaussian 88(TM) system (copyright 1988, Gaussian, Inc.),
 the Gaussian 86(TM) system (copyright 1986, Carnegie Mellon
 University), and the Gaussian 82(TM) system (copyright 1983,
 Carnegie Mellon University). Gaussian is a federally registered
 trademark of Gaussian, Inc.
  
 This software contains proprietary and confidential information,
 including trade secrets, belonging to Gaussian, Inc.
  
 This software is provided under written license and may be
 used, copied, transmitted, or stored only in accord with that
 written license.
  
 The following legend is applicable only to US Government
 contracts under FAR:
  
                    RESTRICTED RIGHTS LEGEND
  
 Use, reproduction and disclosure by the US Government is
 subject to restrictions as set forth in subparagraphs (a)
 and (c) of the Commercial Computer Software - Restricted
 Rights clause in FAR 52.227-19.
  
 Gaussian, Inc.
 340 Quinnipiac St., Bldg. 40, Wallingford CT 06492
  
  
 ---------------------------------------------------------------
 Warning -- This program may not be used in any manner that
 competes with the business of Gaussian, Inc. or will provide
 assistance to any competitor of Gaussian, Inc.  The licensee
 of this program is prohibited from giving any competitor of
 Gaussian, Inc. access to this program.  By using this program,
 the user acknowledges that Gaussian, Inc. is engaged in the
 business of creating and licensing software in the field of
 computational chemistry and represents and warrants to the
 licensee that it is not a competitor of Gaussian, Inc. and that
 it will not use this program in any manner prohibited above.
 ---------------------------------------------------------------
  

 Cite this work as:
 Gaussian 09, Revision A.02,
 M. J. Frisch, G. W. Trucks, H. B. Schlegel, G. E. Scuseria, 
 M. A. Robb, J. R. Cheeseman, G. Scalmani, V. Barone, B. Mennucci, 
 G. A. Petersson, H. Nakatsuji, M. Caricato, X. Li, H. P. Hratchian, 
 A. F. Izmaylov, J. Bloino, G. Zheng, J. L. Sonnenberg, M. Hada, 
 M. Ehara, K. Toyota, R. Fukuda, J. Hasegawa, M. Ishida, T. Nakajima, 
 Y. Honda, O. Kitao, H. Nakai, T. Vreven, J. A. Montgomery, Jr., 
 J. E. Peralta, F. Ogliaro, M. Bearpark, J. J. Heyd, E. Brothers, 
 K. N. Kudin, V. N. Staroverov, R. Kobayashi, J. Normand, 
 K. Raghavachari, A. Rendell, J. C. Burant, S. S. Iyengar, J. Tomasi, 
 M. Cossi, N. Rega, J. M. Millam, M. Klene, J. E. Knox, J. B. Cross, 
 V. Bakken, C. Adamo, J. Jaramillo, R. Gomperts, R. E. Stratmann, 
 O. Yazyev, A. J. Austin, R. Cammi, C. Pomelli, J. W. Ochterski, 
 R. L. Martin, K. Morokuma, V. G. Zakrzewski, G. A. Voth, 
 P. Salvador, J. J. Dannenberg, S. Dapprich, A. D. Daniels, 
 O. Farkas, J. B. Foresman, J. V. Ortiz, J. Cioslowski, 
 and D. J. Fox, Gaussian, Inc., Wallingford CT, 2009.
 
 ******************************************
 Gaussian 09:  EM64L-G09RevA.02 11-Jun-2009
                26-May-2023 
 ******************************************
 %Chk=an.chk
 %Nproc=10
 Will use up to   10 processors via shared memory.
 %Mem=25000Mb
 ----------------------------------------------------------------------
 #p wB97XD/GEN 6D Iop(6/7=3) Iop(9/40=14) scf(maxcyc=200,conver=8) nosy
 m Guess(Read,TCheck) GFInput
 ----------------------------------------------------------------------
 1/38=1/1;
 2/12=2,15=1,17=6,18=5,40=1/2;
 3/5=7,8=2,11=2,16=1,24=10,25=1,30=1,74=-58/1,2,3;
 4/5=102/1;
 5/5=2,6=8,7=200/2;
 6/7=3,8=2,9=2,10=2,28=1/1;
 99/5=1,9=1/99;
 Leave Link    1 at Fri May 26 02:57:09 2023, MaxMem= 3276800000 cpu:       0.6
 (Enter /local/g09-source/g09/l101.exe)
 -------
 Comment
 -------
 Symbolic Z-matrix:
 Charge = -1 Multiplicity = 1
 N                     0.95163  -0.92919  -0.00112 
 C                    -0.24119  -0.11434   0.05465 
 C                     0.05983   1.26208  -0.00073 
 C                     1.35732   1.3605    0.06445 
 C                     1.94218  -0.01231  -0.05537 
 C                    -1.57106  -0.61609  -0.0183 
 N                    -2.67027  -1.02425  -0.01733 
 H                    -0.55125   2.23674   0.01385 
 H                     2.42661   1.96613   0.01273 
 H                     3.13941  -0.38545  -0.30274 
 
 NAtoms=     10 NQM=     10 NQMF=      0 NMic=      0 NMicF=      0 NTot=     10.
                    Isotopes and Nuclear Properties:
 (Nuclear quadrupole moments (NQMom) in fm**2, nuclear magnetic moments (NMagM)
  in nuclear magnetons)

  Atom         1           2           3           4           5           6           7           8           9          10
 IAtWgt=          14          12          12          12          12          12          14           1           1           1
 AtmWgt=  14.0030740  12.0000000  12.0000000  12.0000000  12.0000000  12.0000000  14.0030740   1.0078250   1.0078250   1.0078250
 NucSpn=           2           0           0           0           0           0           2           1           1           1
 AtZEff=   0.0000000   0.0000000   0.0000000   0.0000000   0.0000000   0.0000000   0.0000000   0.0000000   0.0000000   0.0000000
 NQMom=    2.0440000   0.0000000   0.0000000   0.0000000   0.0000000   0.0000000   2.0440000   0.0000000   0.0000000   0.0000000
 NMagM=    0.4037610   0.0000000   0.0000000   0.0000000   0.0000000   0.0000000   0.4037610   2.7928460   2.7928460   2.7928460
 Leave Link  101 at Fri May 26 02:57:09 2023, MaxMem= 3276800000 cpu:       0.9
 (Enter /local/g09-source/g09/l202.exe)
                          Input orientation:                          
 ---------------------------------------------------------------------
 Center     Atomic      Atomic             Coordinates (Angstroms)
 Number     Number       Type             X           Y           Z
 ---------------------------------------------------------------------
      1          7           0        0.951626   -0.929187   -0.001118
      2          6           0       -0.241188   -0.114338    0.054647
      3          6           0        0.059829    1.262077   -0.000726
      4          6           0        1.357320    1.360496    0.064445
      5          6           0        1.942177   -0.012306   -0.055372
      6          6           0       -1.571064   -0.616094   -0.018299
      7          7           0       -2.670272   -1.024247   -0.017329
      8          1           0       -0.551251    2.236738    0.013852
      9          1           0        2.426613    1.966127    0.012733
     10          1           0        3.139415   -0.385453   -0.302741
 ---------------------------------------------------------------------
                    Distance matrix (angstroms):
                    1          2          3          4          5
     1  N    0.000000
     2  C    1.445647   0.000000
     3  C    2.365785   1.410034   0.000000
     4  C    2.326270   2.174962   1.302850   0.000000
     5  C    1.350854   2.188515   2.273823   1.496996   0.000000
     6  C    2.542103   1.423253   2.487498   3.534004   3.564940
     7  N    3.623182   2.594911   3.561039   4.681366   4.722305
     8  H    3.504561   2.371785   1.150476   2.100715   3.358597
     9  H    3.249403   3.383379   2.469319   1.229980   2.038017
    10  H    2.274432   3.410235   3.505626   2.521711   1.278205
                    6          7          8          9         10
     6  C    0.000000
     7  N    1.172539   0.000000
     8  H    3.029802   3.889119   0.000000
     9  H    4.759228   5.909439   2.990135   0.000000
    10  H    4.724692   5.851665   4.538406   2.477406   0.000000
 Symmetry turned off by external request.
 Stoichiometry    C5H3N2(1-)
 Framework group  C1[X(C5H3N2)]
 Deg. of freedom    24
 Full point group                 C1      NOp   1
 Rotational constants (GHZ):      8.6350462      2.0198445      1.6388614
 Leave Link  202 at Fri May 26 02:57:09 2023, MaxMem= 3276800000 cpu:       0.1
 (Enter /local/g09-source/g09/l301.exe)
 General basis read from cards:  (6D, 7F)
 Centers:   8  9 10
 S 3 1.0
     Exponent=  3.3865000000D+01 Coefficients=  2.5493800000D-02
     Exponent=  5.0947900000D+00 Coefficients=  1.9037300000D-01
     Exponent=  1.1587900000D+00 Coefficients=  8.5216100000D-01
 S 1 1.0
     Exponent=  3.2584000000D-01 Coefficients=  1.0000000000D+00
 S 1 1.0
     Exponent=  1.0274100000D-01 Coefficients=  1.0000000000D+00
 S 1 1.0
     Exponent=  3.6000000000D-02 Coefficients=  1.0000000000D+00
 P 1 1.0
     Exponent=  7.5000000000D-01 Coefficients=  1.0000000000D+00
 ****
 Centers:   2  3  4  5  6
 S 6 1.0
     Exponent=  4.5632400000D+03 Coefficients=  1.9666500000D-03
     Exponent=  6.8202400000D+02 Coefficients=  1.5230600000D-02
     Exponent=  1.5497300000D+02 Coefficients=  7.6126900000D-02
     Exponent=  4.4455300000D+01 Coefficients=  2.6080100000D-01
     Exponent=  1.3029000000D+01 Coefficients=  6.1646200000D-01
     Exponent=  1.8277300000D+00 Coefficients=  2.2100600000D-01
 S 3 1.0
     Exponent=  2.0964200000D+01 Coefficients=  1.1466000000D-01
     Exponent=  4.8033100000D+00 Coefficients=  9.1999900000D-01
     Exponent=  1.4593300000D+00 Coefficients= -3.0306800000D-03
 S 1 1.0
     Exponent=  4.8345600000D-01 Coefficients=  1.0000000000D+00
 S 1 1.0
     Exponent=  1.4558500000D-01 Coefficients=  1.0000000000D+00
 S 1 1.0
     Exponent=  4.3800000000D-02 Coefficients=  1.0000000000D+00
 P 3 1.0
     Exponent=  2.0964200000D+01 Coefficients=  4.0248700000D-02
     Exponent=  4.8033100000D+00 Coefficients=  2.3759400000D-01
     Exponent=  1.4593300000D+00 Coefficients=  8.1585400000D-01
 P 1 1.0
     Exponent=  4.8345600000D-01 Coefficients=  1.0000000000D+00
 P 1 1.0
     Exponent=  1.4558500000D-01 Coefficients=  1.0000000000D+00
 P 1 1.0
     Exponent=  4.3800000000D-02 Coefficients=  1.0000000000D+00
 D 1 1.0
     Exponent=  6.2600000000D-01 Coefficients=  1.0000000000D+00
 ****
 Centers:   1  7
 S 6 1.0
     Exponent=  6.2934800000D+03 Coefficients=  1.9697900000D-03
     Exponent=  9.4904400000D+02 Coefficients=  1.4961300000D-02
     Exponent=  2.1877600000D+02 Coefficients=  7.3500600000D-02
     Exponent=  6.3691600000D+01 Coefficients=  2.4893700000D-01
     Exponent=  1.8828200000D+01 Coefficients=  6.0246000000D-01
     Exponent=  2.7202300000D+00 Coefficients=  2.5620200000D-01
 S 3 1.0
     Exponent=  3.0633100000D+01 Coefficients=  1.1190600000D-01
     Exponent=  7.0261400000D+00 Coefficients=  9.2166600000D-01
     Exponent=  2.1120500000D+00 Coefficients= -2.5691900000D-03
 S 1 1.0
     Exponent=  6.8400900000D-01 Coefficients=  1.0000000000D+00
 S 1 1.0
     Exponent=  2.0087800000D-01 Coefficients=  1.0000000000D+00
 S 1 1.0
     Exponent=  6.3900000000D-02 Coefficients=  1.0000000000D+00
 S 1 1.0
     Exponent=  1.8257143000D-02 Coefficients=  1.0000000000D+00
 S 1 1.0
     Exponent=  5.2163270000D-03 Coefficients=  1.0000000000D+00
 S 1 1.0
     Exponent=  1.4903790000D-03 Coefficients=  1.0000000000D+00
 P 3 1.0
     Exponent=  3.0633100000D+01 Coefficients=  3.8311900000D-02
     Exponent=  7.0261400000D+00 Coefficients=  2.3740300000D-01
     Exponent=  2.1120500000D+00 Coefficients=  8.1759200000D-01
 P 1 1.0
     Exponent=  6.8400900000D-01 Coefficients=  1.0000000000D+00
 P 1 1.0
     Exponent=  2.0087800000D-01 Coefficients=  1.0000000000D+00
 P 1 1.0
     Exponent=  6.3900000000D-02 Coefficients=  1.0000000000D+00
 P 1 1.0
     Exponent=  1.8257143000D-02 Coefficients=  1.0000000000D+00
 P 1 1.0
     Exponent=  5.2163270000D-03 Coefficients=  1.0000000000D+00
 D 1 1.0
     Exponent=  9.1300000000D-01 Coefficients=  1.0000000000D+00
 ****
 Ernie: Thresh=  0.10000D-02 Tol=  0.10000D-05 Strict=F.
 AO basis set in the form of general basis input (Overlap normalization):
      1 0
 S   6 1.00       0.000000000000
      0.6293480000D+04  0.1969788147D-02
      0.9490440000D+03  0.1496128592D-01
      0.2187760000D+03  0.7350053084D-01
      0.6369160000D+02  0.2489367658D+00
      0.1882820000D+02  0.6024594331D+00
      0.2720230000D+01  0.2562017589D+00
 S   3 1.00       0.000000000000
      0.3063310000D+02  0.1119060795D+00
      0.7026140000D+01  0.9216666549D+00
      0.2112050000D+01 -0.2569191826D-02
 S   1 1.00       0.000000000000
      0.6840090000D+00  0.1000000000D+01
 S   1 1.00       0.000000000000
      0.2008780000D+00  0.1000000000D+01
 S   1 1.00       0.000000000000
      0.6390000000D-01  0.1000000000D+01
 S   1 1.00       0.000000000000
      0.1825714300D-01  0.1000000000D+01
 S   1 1.00       0.000000000000
      0.5216327000D-02  0.1000000000D+01
 S   1 1.00       0.000000000000
      0.1490379000D-02  0.1000000000D+01
 P   3 1.00       0.000000000000
      0.3063310000D+02  0.3831191864D-01
      0.7026140000D+01  0.2374031155D+00
      0.2112050000D+01  0.8175923978D+00
 P   1 1.00       0.000000000000
      0.6840090000D+00  0.1000000000D+01
 P   1 1.00       0.000000000000
      0.2008780000D+00  0.1000000000D+01
 P   1 1.00       0.000000000000
      0.6390000000D-01  0.1000000000D+01
 P   1 1.00       0.000000000000
      0.1825714300D-01  0.1000000000D+01
 P   1 1.00       0.000000000000
      0.5216327000D-02  0.1000000000D+01
 D   1 1.00       0.000000000000
      0.9130000000D+00  0.1000000000D+01
 ****
      2 0
 S   6 1.00       0.000000000000
      0.4563240000D+04  0.1966650249D-02
      0.6820240000D+03  0.1523060193D-01
      0.1549730000D+03  0.7612690966D-01
      0.4445530000D+02  0.2608010331D+00
      0.1302900000D+02  0.6164620782D+00
      0.1827730000D+01  0.2210060280D+00
 S   3 1.00       0.000000000000
      0.2096420000D+02  0.1146600807D+00
      0.4803310000D+01  0.9199996477D+00
      0.1459330000D+01 -0.3030682134D-02
 S   1 1.00       0.000000000000
      0.4834560000D+00  0.1000000000D+01
 S   1 1.00       0.000000000000
      0.1455850000D+00  0.1000000000D+01
 S   1 1.00       0.000000000000
      0.4380000000D-01  0.1000000000D+01
 P   3 1.00       0.000000000000
      0.2096420000D+02  0.4024869267D-01
      0.4803310000D+01  0.2375939567D+00
      0.1459330000D+01  0.8158538515D+00
 P   1 1.00       0.000000000000
      0.4834560000D+00  0.1000000000D+01
 P   1 1.00       0.000000000000
      0.1455850000D+00  0.1000000000D+01
 P   1 1.00       0.000000000000
      0.4380000000D-01  0.1000000000D+01
 D   1 1.00       0.000000000000
      0.6260000000D+00  0.1000000000D+01
 ****
      3 0
 S   6 1.00       0.000000000000
      0.4563240000D+04  0.1966650249D-02
      0.6820240000D+03  0.1523060193D-01
      0.1549730000D+03  0.7612690966D-01
      0.4445530000D+02  0.2608010331D+00
      0.1302900000D+02  0.6164620782D+00
      0.1827730000D+01  0.2210060280D+00
 S   3 1.00       0.000000000000
      0.2096420000D+02  0.1146600807D+00
      0.4803310000D+01  0.9199996477D+00
      0.1459330000D+01 -0.3030682134D-02
 S   1 1.00       0.000000000000
      0.4834560000D+00  0.1000000000D+01
 S   1 1.00       0.000000000000
      0.1455850000D+00  0.1000000000D+01
 S   1 1.00       0.000000000000
      0.4380000000D-01  0.1000000000D+01
 P   3 1.00       0.000000000000
      0.2096420000D+02  0.4024869267D-01
      0.4803310000D+01  0.2375939567D+00
      0.1459330000D+01  0.8158538515D+00
 P   1 1.00       0.000000000000
      0.4834560000D+00  0.1000000000D+01
 P   1 1.00       0.000000000000
      0.1455850000D+00  0.1000000000D+01
 P   1 1.00       0.000000000000
      0.4380000000D-01  0.1000000000D+01
 D   1 1.00       0.000000000000
      0.6260000000D+00  0.1000000000D+01
 ****
      4 0
 S   6 1.00       0.000000000000
      0.4563240000D+04  0.1966650249D-02
      0.6820240000D+03  0.1523060193D-01
      0.1549730000D+03  0.7612690966D-01
      0.4445530000D+02  0.2608010331D+00
      0.1302900000D+02  0.6164620782D+00
      0.1827730000D+01  0.2210060280D+00
 S   3 1.00       0.000000000000
      0.2096420000D+02  0.1146600807D+00
      0.4803310000D+01  0.9199996477D+00
      0.1459330000D+01 -0.3030682134D-02
 S   1 1.00       0.000000000000
      0.4834560000D+00  0.1000000000D+01
 S   1 1.00       0.000000000000
      0.1455850000D+00  0.1000000000D+01
 S   1 1.00       0.000000000000
      0.4380000000D-01  0.1000000000D+01
 P   3 1.00       0.000000000000
      0.2096420000D+02  0.4024869267D-01
      0.4803310000D+01  0.2375939567D+00
      0.1459330000D+01  0.8158538515D+00
 P   1 1.00       0.000000000000
      0.4834560000D+00  0.1000000000D+01
 P   1 1.00       0.000000000000
      0.1455850000D+00  0.1000000000D+01
 P   1 1.00       0.000000000000
      0.4380000000D-01  0.1000000000D+01
 D   1 1.00       0.000000000000
      0.6260000000D+00  0.1000000000D+01
 ****
      5 0
 S   6 1.00       0.000000000000
      0.4563240000D+04  0.1966650249D-02
      0.6820240000D+03  0.1523060193D-01
      0.1549730000D+03  0.7612690966D-01
      0.4445530000D+02  0.2608010331D+00
      0.1302900000D+02  0.6164620782D+00
      0.1827730000D+01  0.2210060280D+00
 S   3 1.00       0.000000000000
      0.2096420000D+02  0.1146600807D+00
      0.4803310000D+01  0.9199996477D+00
      0.1459330000D+01 -0.3030682134D-02
 S   1 1.00       0.000000000000
      0.4834560000D+00  0.1000000000D+01
 S   1 1.00       0.000000000000
      0.1455850000D+00  0.1000000000D+01
 S   1 1.00       0.000000000000
      0.4380000000D-01  0.1000000000D+01
 P   3 1.00       0.000000000000
      0.2096420000D+02  0.4024869267D-01
      0.4803310000D+01  0.2375939567D+00
      0.1459330000D+01  0.8158538515D+00
 P   1 1.00       0.000000000000
      0.4834560000D+00  0.1000000000D+01
 P   1 1.00       0.000000000000
      0.1455850000D+00  0.1000000000D+01
 P   1 1.00       0.000000000000
      0.4380000000D-01  0.1000000000D+01
 D   1 1.00       0.000000000000
      0.6260000000D+00  0.1000000000D+01
 ****
      6 0
 S   6 1.00       0.000000000000
      0.4563240000D+04  0.1966650249D-02
      0.6820240000D+03  0.1523060193D-01
      0.1549730000D+03  0.7612690966D-01
      0.4445530000D+02  0.2608010331D+00
      0.1302900000D+02  0.6164620782D+00
      0.1827730000D+01  0.2210060280D+00
 S   3 1.00       0.000000000000
      0.2096420000D+02  0.1146600807D+00
      0.4803310000D+01  0.9199996477D+00
      0.1459330000D+01 -0.3030682134D-02
 S   1 1.00       0.000000000000
      0.4834560000D+00  0.1000000000D+01
 S   1 1.00       0.000000000000
      0.1455850000D+00  0.1000000000D+01
 S   1 1.00       0.000000000000
      0.4380000000D-01  0.1000000000D+01
 P   3 1.00       0.000000000000
      0.2096420000D+02  0.4024869267D-01
      0.4803310000D+01  0.2375939567D+00
      0.1459330000D+01  0.8158538515D+00
 P   1 1.00       0.000000000000
      0.4834560000D+00  0.1000000000D+01
 P   1 1.00       0.000000000000
      0.1455850000D+00  0.1000000000D+01
 P   1 1.00       0.000000000000
      0.4380000000D-01  0.1000000000D+01
 D   1 1.00       0.000000000000
      0.6260000000D+00  0.1000000000D+01
 ****
      7 0
 S   6 1.00       0.000000000000
      0.6293480000D+04  0.1969788147D-02
      0.9490440000D+03  0.1496128592D-01
      0.2187760000D+03  0.7350053084D-01
      0.6369160000D+02  0.2489367658D+00
      0.1882820000D+02  0.6024594331D+00
      0.2720230000D+01  0.2562017589D+00
 S   3 1.00       0.000000000000
      0.3063310000D+02  0.1119060795D+00
      0.7026140000D+01  0.9216666549D+00
      0.2112050000D+01 -0.2569191826D-02
 S   1 1.00       0.000000000000
      0.6840090000D+00  0.1000000000D+01
 S   1 1.00       0.000000000000
      0.2008780000D+00  0.1000000000D+01
 S   1 1.00       0.000000000000
      0.6390000000D-01  0.1000000000D+01
 S   1 1.00       0.000000000000
      0.1825714300D-01  0.1000000000D+01
 S   1 1.00       0.000000000000
      0.5216327000D-02  0.1000000000D+01
 S   1 1.00       0.000000000000
      0.1490379000D-02  0.1000000000D+01
 P   3 1.00       0.000000000000
      0.3063310000D+02  0.3831191864D-01
      0.7026140000D+01  0.2374031155D+00
      0.2112050000D+01  0.8175923978D+00
 P   1 1.00       0.000000000000
      0.6840090000D+00  0.1000000000D+01
 P   1 1.00       0.000000000000
      0.2008780000D+00  0.1000000000D+01
 P   1 1.00       0.000000000000
      0.6390000000D-01  0.1000000000D+01
 P   1 1.00       0.000000000000
      0.1825714300D-01  0.1000000000D+01
 P   1 1.00       0.000000000000
      0.5216327000D-02  0.1000000000D+01
 D   1 1.00       0.000000000000
      0.9130000000D+00  0.1000000000D+01
 ****
      8 0
 S   3 1.00       0.000000000000
      0.3386500000D+02  0.2549381454D-01
      0.5094790000D+01  0.1903731086D+00
      0.1158790000D+01  0.8521614860D+00
 S   1 1.00       0.000000000000
      0.3258400000D+00  0.1000000000D+01
 S   1 1.00       0.000000000000
      0.1027410000D+00  0.1000000000D+01
 S   1 1.00       0.000000000000
      0.3600000000D-01  0.1000000000D+01
 P   1 1.00       0.000000000000
      0.7500000000D+00  0.1000000000D+01
 ****
      9 0
 S   3 1.00       0.000000000000
      0.3386500000D+02  0.2549381454D-01
      0.5094790000D+01  0.1903731086D+00
      0.1158790000D+01  0.8521614860D+00
 S   1 1.00       0.000000000000
      0.3258400000D+00  0.1000000000D+01
 S   1 1.00       0.000000000000
      0.1027410000D+00  0.1000000000D+01
 S   1 1.00       0.000000000000
      0.3600000000D-01  0.1000000000D+01
 P   1 1.00       0.000000000000
      0.7500000000D+00  0.1000000000D+01
 ****
     10 0
 S   3 1.00       0.000000000000
      0.3386500000D+02  0.2549381454D-01
      0.5094790000D+01  0.1903731086D+00
      0.1158790000D+01  0.8521614860D+00
 S   1 1.00       0.000000000000
      0.3258400000D+00  0.1000000000D+01
 S   1 1.00       0.000000000000
      0.1027410000D+00  0.1000000000D+01
 S   1 1.00       0.000000000000
      0.3600000000D-01  0.1000000000D+01
 P   1 1.00       0.000000000000
      0.7500000000D+00  0.1000000000D+01
 ****

 Integral buffers will be    131072 words long.
 Raffenetti 2 integral format.
 Two-electron integral symmetry is turned off.
   200 basis functions,   297 primitive gaussians,   200 cartesian basis functions
    24 alpha electrons       24 beta electrons
       nuclear repulsion energy       235.7994509405 Hartrees.
 IExCor= 4639 DFT=T Ex+Corr=wB97XD ExCW=0 ScaHFX=  1.000000
 ScaDFX=  1.000000  1.000000  1.000000  1.000000 ScalE2=  1.000000  1.000000
 IRadAn=      0 IRanWt=     -1 IRanGd=            0 ICorTp=0
  HFx wShort=  0.000000 wLong=  0.200000 cFull=  0.222036 cShort=  0.000000 cLong=  0.777964
  DFx wShort=  0.000000 wLong=  0.200000 cFull=  0.000000 cShort=  0.000000 cLong=  1.000000
 NAtoms=   10 NActive=   10 NUniq=   10 SFac= 7.50D-01 NAtFMM=   80 NAOKFM=F Big=F
 R6Disp: Dispersion energy =        -0.0030564439 Hartrees.
 Nuclear repulsion after empirical dispersion term =      235.7963944966 Hartrees.
 Leave Link  301 at Fri May 26 02:57:09 2023, MaxMem= 3276800000 cpu:       0.5
 (Enter /local/g09-source/g09/l302.exe)
 NPDir=0 NMtPBC=     1 NCelOv=     1 NCel=       1 NClECP=     1 NCelD=      1
         NCelK=      1 NCelE2=     1 NClLst=     1 CellRange=     0.0.
 One-electron integrals computed using PRISM.
 NBasis=   200 RedAO= T  NBF=   200
 NBsUse=   200 1.00D-06 NBFU=   200
 Precomputing XC quadrature grid using
 IXCGrd= 2 IRadAn=           0 IRanWt=          -1 IRanGd=           0 AccXCQ= 1.00D-10.
 NRdTot=     695 NPtTot=       89148 NUsed=       94156 NTot=       94188
 NSgBfM=   200   200   200   200   200 NAtAll=    10    10.
 Leave Link  302 at Fri May 26 02:57:09 2023, MaxMem= 3276800000 cpu:       2.3
 (Enter /local/g09-source/g09/l303.exe)
 DipDrv:  MaxL=1.
 Leave Link  303 at Fri May 26 02:57:09 2023, MaxMem= 3276800000 cpu:       0.4
 (Enter /local/g09-source/g09/l401.exe)
 Initial guess read from the checkpoint file:  an.chk
 B after Tr=     0.000283   -0.000069   -0.000160
         Rot=    1.000000    0.000001   -0.000063   -0.000012 Ang=   0.01 deg.
 Guess basis will be translated and rotated to current coordinates.
 Leave Link  401 at Fri May 26 02:57:09 2023, MaxMem= 3276800000 cpu:       2.0
 (Enter /local/g09-source/g09/l502.exe)
 Closed shell SCF:
 Requested convergence on RMS density matrix=1.00D-08 within 200 cycles.
 Requested convergence on MAX density matrix=1.00D-06.
 Requested convergence on             energy=1.00D-06.
 No special actions if energy rises.
 Using DIIS extrapolation, IDIIS=  1040.
 Two-electron integral symmetry not used.
        94053 words used for storage of precomputed grid.
 IEnd=      259395 IEndB=      259395 NGot=  3276800000 MDV=  3276621206
 LenX=  3276621206 LenY=  3276580765
 Fock matrices will be formed incrementally for  20 cycles.

 Cycle   1  Pass 1  IDiag  1:
 FoFJK:  IHMeth= 1 ICntrl=     0 DoSepK=T KAlg= 1 I1Cent= 0 FoldK=F
 FoFCou: FMM=F IPFlag=           0 FMFlag=      100000 FMFlg1=           0
         NFxFlg=           0 DoJE=T BraDBF=F KetDBF=F FulRan=T
         Omega=  0.000000  0.000000  1.000000  0.000000  0.000000 ICntrl=     500 IOpCl=  0
         NMat0=    1 NMatS0=    1 NMatT0=    0 NMatD0=    1 NMtDS0=    0 NMtDT0=    0
         I1Cent=           0 NGrid=           0.
 Symmetry not used in FoFCou.
 E= -301.754933767484    
 DIIS: error= 3.51D-04 at cycle   1 NSaved=   1.
 NSaved= 1 IEnMin= 1 EnMin= -301.754933767484     IErMin= 1 ErrMin= 3.51D-04
 ErrMax= 3.51D-04 EMaxC= 1.00D-01 BMatC= 5.09D-05 BMatP= 5.09D-05
 IDIUse=3 WtCom= 9.96D-01 WtEn= 3.51D-03
 Coeff-Com:  0.100D+01
 Coeff-En:   0.100D+01
 Coeff:      0.100D+01
 Gap=     0.143 Goal=   None    Shift=    0.000
 RMSDP=1.21D-03 MaxDP=6.34D-02              OVMax= 1.98D-03

 Cycle   2  Pass 1  IDiag  1:
 RMSU=  8.18D-04    CP:  1.01D+00
 FoFJK:  IHMeth= 1 ICntrl=     0 DoSepK=T KAlg= 1 I1Cent= 0 FoldK=F
 E= -301.754995875259     Delta-E=       -0.000062107775 Rises=F Damp=F
 DIIS: error= 2.09D-04 at cycle   2 NSaved=   2.
 NSaved= 2 IEnMin= 2 EnMin= -301.754995875259     IErMin= 2 ErrMin= 2.09D-04
 ErrMax= 2.09D-04 EMaxC= 1.00D-01 BMatC= 4.52D-06 BMatP= 5.09D-05
 IDIUse=3 WtCom= 9.98D-01 WtEn= 2.09D-03
 Coeff-Com:  0.432D-01 0.957D+00
 Coeff-En:   0.000D+00 0.100D+01
 Coeff:      0.431D-01 0.957D+00
 Gap=     0.143 Goal=   None    Shift=    0.000
 RMSDP=2.12D-04 MaxDP=1.76D-02 DE=-6.21D-05 OVMax= 1.30D-03

 Cycle   3  Pass 1  IDiag  1:
 RMSU=  9.22D-05    CP:  1.01D+00  1.11D+00
 FoFJK:  IHMeth= 1 ICntrl=     0 DoSepK=T KAlg= 1 I1Cent= 0 FoldK=F
 E= -301.754998138352     Delta-E=       -0.000002263093 Rises=F Damp=F
 DIIS: error= 1.84D-04 at cycle   3 NSaved=   3.
 NSaved= 3 IEnMin= 3 EnMin= -301.754998138352     IErMin= 3 ErrMin= 1.84D-04
 ErrMax= 1.84D-04 EMaxC= 1.00D-01 BMatC= 4.36D-06 BMatP= 4.52D-06
 IDIUse=3 WtCom= 9.98D-01 WtEn= 1.84D-03
 Coeff-Com: -0.584D-01 0.517D+00 0.541D+00
 Coeff-En:   0.000D+00 0.334D+00 0.666D+00
 Coeff:     -0.583D-01 0.517D+00 0.541D+00
 Gap=     0.143 Goal=   None    Shift=    0.000
 RMSDP=8.96D-05 MaxDP=5.13D-03 DE=-2.26D-06 OVMax= 6.08D-04

 Cycle   4  Pass 1  IDiag  1:
 RMSU=  2.16D-05    CP:  1.01D+00  1.16D+00  5.24D-01
 FoFJK:  IHMeth= 1 ICntrl=     0 DoSepK=T KAlg= 1 I1Cent= 0 FoldK=F
 E= -301.755002273845     Delta-E=       -0.000004135492 Rises=F Damp=F
 DIIS: error= 3.25D-05 at cycle   4 NSaved=   4.
 NSaved= 4 IEnMin= 4 EnMin= -301.755002273845     IErMin= 4 ErrMin= 3.25D-05
 ErrMax= 3.25D-05 EMaxC= 1.00D-01 BMatC= 1.77D-07 BMatP= 4.36D-06
 IDIUse=1 WtCom= 1.00D+00 WtEn= 0.00D+00
 Coeff-Com: -0.208D-01 0.880D-01 0.186D+00 0.747D+00
 Coeff:     -0.208D-01 0.880D-01 0.186D+00 0.747D+00
 Gap=     0.143 Goal=   None    Shift=    0.000
 RMSDP=1.36D-05 MaxDP=4.61D-04 DE=-4.14D-06 OVMax= 1.72D-04

 Cycle   5  Pass 1  IDiag  1:
 RMSU=  6.97D-06    CP:  1.01D+00  1.17D+00  5.20D-01  1.18D+00
 FoFJK:  IHMeth= 1 ICntrl=     0 DoSepK=T KAlg= 1 I1Cent= 0 FoldK=F
 E= -301.755002442324     Delta-E=       -0.000000168480 Rises=F Damp=F
 DIIS: error= 1.60D-05 at cycle   5 NSaved=   5.
 NSaved= 5 IEnMin= 5 EnMin= -301.755002442324     IErMin= 5 ErrMin= 1.60D-05
 ErrMax= 1.60D-05 EMaxC= 1.00D-01 BMatC= 7.94D-08 BMatP= 1.77D-07
 IDIUse=1 WtCom= 1.00D+00 WtEn= 0.00D+00
 Coeff-Com: -0.681D-03-0.587D-01 0.148D-02 0.452D+00 0.606D+00
 Coeff:     -0.681D-03-0.587D-01 0.148D-02 0.452D+00 0.606D+00
 Gap=     0.143 Goal=   None    Shift=    0.000
 RMSDP=1.10D-05 MaxDP=6.45D-04 DE=-1.68D-07 OVMax= 9.71D-05

 Cycle   6  Pass 1  IDiag  1:
 RMSU=  2.96D-06    CP:  1.01D+00  1.17D+00  4.76D-01  1.34D+00  1.21D+00
 FoFJK:  IHMeth= 1 ICntrl=     0 DoSepK=T KAlg= 1 I1Cent= 0 FoldK=F
 E= -301.755002527769     Delta-E=       -0.000000085445 Rises=F Damp=F
 DIIS: error= 6.15D-06 at cycle   6 NSaved=   6.
 NSaved= 6 IEnMin= 6 EnMin= -301.755002527769     IErMin= 6 ErrMin= 6.15D-06
 ErrMax= 6.15D-06 EMaxC= 1.00D-01 BMatC= 3.88D-09 BMatP= 7.94D-08
 IDIUse=1 WtCom= 1.00D+00 WtEn= 0.00D+00
 Coeff-Com:  0.256D-02-0.322D-01-0.212D-01 0.612D-01 0.199D+00 0.791D+00
 Coeff:      0.256D-02-0.322D-01-0.212D-01 0.612D-01 0.199D+00 0.791D+00
 Gap=     0.143 Goal=   None    Shift=    0.000
 RMSDP=6.37D-06 MaxDP=5.43D-04 DE=-8.54D-08 OVMax= 6.20D-05

 Cycle   7  Pass 1  IDiag  1:
 RMSU=  9.78D-07    CP:  1.01D+00  1.17D+00  4.47D-01  1.39D+00  1.37D+00
                    CP:  1.34D+00
 FoFJK:  IHMeth= 1 ICntrl=     0 DoSepK=T KAlg= 1 I1Cent= 0 FoldK=F
 E= -301.755002535365     Delta-E=       -0.000000007597 Rises=F Damp=F
 DIIS: error= 2.53D-06 at cycle   7 NSaved=   7.
 NSaved= 7 IEnMin= 7 EnMin= -301.755002535365     IErMin= 7 ErrMin= 2.53D-06
 ErrMax= 2.53D-06 EMaxC= 1.00D-01 BMatC= 1.03D-09 BMatP= 3.88D-09
 IDIUse=1 WtCom= 1.00D+00 WtEn= 0.00D+00
 Coeff-Com:  0.120D-02-0.431D-02-0.948D-02-0.528D-01-0.164D-01 0.359D+00
 Coeff-Com:  0.723D+00
 Coeff:      0.120D-02-0.431D-02-0.948D-02-0.528D-01-0.164D-01 0.359D+00
 Coeff:      0.723D+00
 Gap=     0.143 Goal=   None    Shift=    0.000
 RMSDP=4.23D-06 MaxDP=3.73D-04 DE=-7.60D-09 OVMax= 2.08D-05

 Cycle   8  Pass 1  IDiag  1:
 RMSU=  6.50D-07    CP:  1.01D+00  1.17D+00  4.23D-01  1.42D+00  1.50D+00
                    CP:  1.61D+00  1.28D+00
 FoFJK:  IHMeth= 1 ICntrl=     0 DoSepK=T KAlg= 1 I1Cent= 0 FoldK=F
 E= -301.755002537242     Delta-E=       -0.000000001876 Rises=F Damp=F
 DIIS: error= 1.03D-06 at cycle   8 NSaved=   8.
 NSaved= 8 IEnMin= 8 EnMin= -301.755002537242     IErMin= 8 ErrMin= 1.03D-06
 ErrMax= 1.03D-06 EMaxC= 1.00D-01 BMatC= 1.10D-10 BMatP= 1.03D-09
 IDIUse=1 WtCom= 1.00D+00 WtEn= 0.00D+00
 Coeff-Com: -0.423D-04 0.417D-02 0.199D-03-0.286D-01-0.355D-01-0.126D-01
 Coeff-Com:  0.207D+00 0.865D+00
 Coeff:     -0.423D-04 0.417D-02 0.199D-03-0.286D-01-0.355D-01-0.126D-01
 Coeff:      0.207D+00 0.865D+00
 Gap=     0.143 Goal=   None    Shift=    0.000
 RMSDP=2.17D-06 MaxDP=2.03D-04 DE=-1.88D-09 OVMax= 1.31D-05

 Cycle   9  Pass 1  IDiag  1:
 RMSU=  2.00D-07    CP:  1.01D+00  1.17D+00  4.12D-01  1.43D+00  1.55D+00
                    CP:  1.72D+00  1.56D+00  1.25D+00
 FoFJK:  IHMeth= 1 ICntrl=     0 DoSepK=T KAlg= 1 I1Cent= 0 FoldK=F
 E= -301.755002537537     Delta-E=       -0.000000000295 Rises=F Damp=F
 DIIS: error= 5.04D-07 at cycle   9 NSaved=   9.
 NSaved= 9 IEnMin= 9 EnMin= -301.755002537537     IErMin= 9 ErrMin= 5.04D-07
 ErrMax= 5.04D-07 EMaxC= 1.00D-01 BMatC= 3.46D-11 BMatP= 1.10D-10
 IDIUse=1 WtCom= 1.00D+00 WtEn= 0.00D+00
 Coeff-Com: -0.245D-03 0.272D-02 0.187D-02-0.295D-02-0.115D-01-0.731D-01
 Coeff-Com: -0.483D-01 0.427D+00 0.705D+00
 Coeff:     -0.245D-03 0.272D-02 0.187D-02-0.295D-02-0.115D-01-0.731D-01
 Coeff:     -0.483D-01 0.427D+00 0.705D+00
 Gap=     0.143 Goal=   None    Shift=    0.000
 RMSDP=9.52D-07 MaxDP=8.98D-05 DE=-2.95D-10 OVMax= 6.58D-06

 Cycle  10  Pass 1  IDiag  1:
 RMSU=  8.48D-08    CP:  1.01D+00  1.17D+00  4.06D-01  1.43D+00  1.56D+00
                    CP:  1.76D+00  1.62D+00  1.46D+00  1.10D+00
 FoFJK:  IHMeth= 1 ICntrl=     0 DoSepK=T KAlg= 1 I1Cent= 0 FoldK=F
 E= -301.755002537603     Delta-E=       -0.000000000067 Rises=F Damp=F
 DIIS: error= 1.05D-07 at cycle  10 NSaved=  10.
 NSaved=10 IEnMin=10 EnMin= -301.755002537603     IErMin=10 ErrMin= 1.05D-07
 ErrMax= 1.05D-07 EMaxC= 1.00D-01 BMatC= 2.99D-12 BMatP= 3.46D-11
 IDIUse=1 WtCom= 1.00D+00 WtEn= 0.00D+00
 Coeff-Com: -0.467D-04-0.369D-04 0.403D-03 0.321D-02 0.310D-02-0.127D-01
 Coeff-Com: -0.459D-01-0.498D-01 0.172D+00 0.930D+00
 Coeff:     -0.467D-04-0.369D-04 0.403D-03 0.321D-02 0.310D-02-0.127D-01
 Coeff:     -0.459D-01-0.498D-01 0.172D+00 0.930D+00
 Gap=     0.143 Goal=   None    Shift=    0.000
 RMSDP=3.17D-07 MaxDP=3.15D-05 DE=-6.65D-11 OVMax= 2.19D-06

 Cycle  11  Pass 1  IDiag  1:
 RMSU=  3.32D-08    CP:  1.01D+00  1.17D+00  4.04D-01  1.43D+00  1.57D+00
                    CP:  1.77D+00  1.65D+00  1.57D+00  1.26D+00  1.44D+00
 FoFJK:  IHMeth= 1 ICntrl=     0 DoSepK=T KAlg= 1 I1Cent= 0 FoldK=F
 E= -301.755002537609     Delta-E=       -0.000000000006 Rises=F Damp=F
 DIIS: error= 4.18D-08 at cycle  11 NSaved=  11.
 NSaved=11 IEnMin=11 EnMin= -301.755002537609     IErMin=11 ErrMin= 4.18D-08
 ErrMax= 4.18D-08 EMaxC= 1.00D-01 BMatC= 2.70D-13 BMatP= 2.99D-12
 IDIUse=1 WtCom= 1.00D+00 WtEn= 0.00D+00
 Coeff-Com:  0.209D-04-0.399D-03-0.134D-03 0.132D-02 0.265D-02 0.703D-02
 Coeff-Com: -0.755D-02-0.729D-01-0.261D-01 0.240D+00 0.856D+00
 Coeff:      0.209D-04-0.399D-03-0.134D-03 0.132D-02 0.265D-02 0.703D-02
 Coeff:     -0.755D-02-0.729D-01-0.261D-01 0.240D+00 0.856D+00
 Gap=     0.143 Goal=   None    Shift=    0.000
 RMSDP=5.22D-08 MaxDP=2.75D-06 DE=-5.91D-12 OVMax= 6.77D-07

 Cycle  12  Pass 1  IDiag  1:
 RMSU=  1.02D-08    CP:  1.01D+00  1.17D+00  4.04D-01  1.43D+00  1.56D+00
                    CP:  1.77D+00  1.64D+00  1.57D+00  1.31D+00  1.58D+00
                    CP:  1.10D+00
 FoFJK:  IHMeth= 1 ICntrl=     0 DoSepK=T KAlg= 1 I1Cent= 0 FoldK=F
 E= -301.755002537609     Delta-E=        0.000000000000 Rises=F Damp=F
 DIIS: error= 1.32D-08 at cycle  12 NSaved=  12.
 NSaved=12 IEnMin=11 EnMin= -301.755002537609     IErMin=12 ErrMin= 1.32D-08
 ErrMax= 1.32D-08 EMaxC= 1.00D-01 BMatC= 3.87D-14 BMatP= 2.70D-13
 IDIUse=1 WtCom= 1.00D+00 WtEn= 0.00D+00
 Coeff-Com:  0.965D-05-0.110D-03-0.742D-04 0.103D-03 0.484D-03 0.330D-02
 Coeff-Com:  0.122D-02-0.178D-01-0.207D-01-0.240D-01 0.257D+00 0.800D+00
 Coeff:      0.965D-05-0.110D-03-0.742D-04 0.103D-03 0.484D-03 0.330D-02
 Coeff:      0.122D-02-0.178D-01-0.207D-01-0.240D-01 0.257D+00 0.800D+00
 Gap=     0.143 Goal=   None    Shift=    0.000
 RMSDP=1.94D-08 MaxDP=1.30D-06 DE= 0.00D+00 OVMax= 1.55D-07

 Cycle  13  Pass 1  IDiag  1:
 RMSU=  4.50D-09    CP:  1.01D+00  1.17D+00  4.05D-01  1.43D+00  1.56D+00
                    CP:  1.77D+00  1.64D+00  1.57D+00  1.32D+00  1.62D+00
                    CP:  1.19D+00  1.19D+00
 FoFJK:  IHMeth= 1 ICntrl=     0 DoSepK=T KAlg= 1 I1Cent= 0 FoldK=F
 E= -301.755002537610     Delta-E=       -0.000000000001 Rises=F Damp=F
 DIIS: error= 6.24D-09 at cycle  13 NSaved=  13.
 NSaved=13 IEnMin=13 EnMin= -301.755002537610     IErMin=13 ErrMin= 6.24D-09
 ErrMax= 6.24D-09 EMaxC= 1.00D-01 BMatC= 5.74D-15 BMatP= 3.87D-14
 IDIUse=1 WtCom= 1.00D+00 WtEn= 0.00D+00
 Coeff-Com: -0.217D-07 0.256D-04-0.350D-05-0.160D-03-0.241D-03 0.523D-05
 Coeff-Com:  0.138D-02 0.614D-02-0.754D-03-0.466D-01-0.591D-01 0.261D+00
 Coeff-Com:  0.838D+00
 Coeff:     -0.217D-07 0.256D-04-0.350D-05-0.160D-03-0.241D-03 0.523D-05
 Coeff:      0.138D-02 0.614D-02-0.754D-03-0.466D-01-0.591D-01 0.261D+00
 Coeff:      0.838D+00
 Gap=     0.143 Goal=   None    Shift=    0.000
 RMSDP=1.25D-08 MaxDP=9.86D-07 DE=-1.02D-12 OVMax= 8.16D-08

 Cycle  14  Pass 1  IDiag  1:
 RMSU=  1.17D-09    CP:  1.01D+00  1.17D+00  4.05D-01  1.43D+00  1.56D+00
                    CP:  1.77D+00  1.64D+00  1.57D+00  1.31D+00  1.63D+00
                    CP:  1.23D+00  1.34D+00  1.12D+00
 FoFJK:  IHMeth= 1 ICntrl=     0 DoSepK=T KAlg= 1 I1Cent= 0 FoldK=F
 E= -301.755002537616     Delta-E=       -0.000000000006 Rises=F Damp=F
 DIIS: error= 1.37D-09 at cycle  14 NSaved=  14.
 NSaved=14 IEnMin=14 EnMin= -301.755002537616     IErMin=14 ErrMin= 1.37D-09
 ErrMax= 1.37D-09 EMaxC= 1.00D-01 BMatC= 3.38D-16 BMatP= 5.74D-15
 IDIUse=1 WtCom= 1.00D+00 WtEn= 0.00D+00
 Coeff-Com: -0.956D-06 0.140D-04 0.899D-05-0.350D-04-0.751D-04-0.313D-03
 Coeff-Com: -0.171D-04 0.243D-02 0.211D-02-0.285D-02-0.340D-01-0.601D-01
 Coeff-Com:  0.822D-01 0.101D+01
 Coeff:     -0.956D-06 0.140D-04 0.899D-05-0.350D-04-0.751D-04-0.313D-03
 Coeff:     -0.171D-04 0.243D-02 0.211D-02-0.285D-02-0.340D-01-0.601D-01
 Coeff:      0.822D-01 0.101D+01
 Gap=     0.143 Goal=   None    Shift=    0.000
 RMSDP=3.82D-09 MaxDP=2.64D-07 DE=-6.14D-12 OVMax= 2.71D-08

 SCF Done:  E(RwB97XD) =  -301.755002538     A.U. after   14 cycles
             Convg  =    0.3816D-08             -V/T =  2.0066
 KE= 2.997753900601D+02 PE=-1.182671282171D+03 EE= 3.453444950767D+02
 Leave Link  502 at Fri May 26 02:57:56 2023, MaxMem= 3276800000 cpu:     457.9
 (Enter /local/g09-source/g09/l601.exe)
 Copying SCF densities to generalized density rwf, IOpCl= 0 IROHF=0.

 **********************************************************************

            Population analysis using the SCF density.

 **********************************************************************

 Alpha  occ. eigenvalues --  -14.26253 -14.26091 -10.16572 -10.15580 -10.15496
 Alpha  occ. eigenvalues --  -10.13319 -10.12731  -0.86639  -0.83163  -0.70306
 Alpha  occ. eigenvalues --   -0.65037  -0.52071  -0.45995  -0.43368  -0.35140
 Alpha  occ. eigenvalues --   -0.32536  -0.31485  -0.29199  -0.27624  -0.26214
 Alpha  occ. eigenvalues --   -0.24635  -0.18264  -0.16433  -0.10769
 Alpha virt. eigenvalues --    0.03562   0.03963   0.06595   0.07053   0.07128
 Alpha virt. eigenvalues --    0.07158   0.07411   0.07473   0.08416   0.08655
 Alpha virt. eigenvalues --    0.14404   0.14808   0.15715   0.16021   0.16221
 Alpha virt. eigenvalues --    0.16780   0.16851   0.17432   0.17522   0.18402
 Alpha virt. eigenvalues --    0.20611   0.22090   0.25261   0.25467   0.25952
 Alpha virt. eigenvalues --    0.26167   0.27176   0.27564   0.28579   0.29234
 Alpha virt. eigenvalues --    0.30099   0.30489   0.31429   0.31800   0.32074
 Alpha virt. eigenvalues --    0.32891   0.33147   0.34027   0.34209   0.34865
 Alpha virt. eigenvalues --    0.36889   0.37952   0.38218   0.40244   0.42175
 Alpha virt. eigenvalues --    0.42323   0.43682   0.44041   0.44849   0.45201
 Alpha virt. eigenvalues --    0.46522   0.48236   0.49474   0.49774   0.51723
 Alpha virt. eigenvalues --    0.53511   0.54462   0.56653   0.59258   0.63122
 Alpha virt. eigenvalues --    0.67599   0.70014   0.75060   0.75808   0.78710
 Alpha virt. eigenvalues --    0.81417   0.81943   0.84017   0.85625   0.86487
 Alpha virt. eigenvalues --    0.86975   0.89197   0.89803   0.92701   0.94448
 Alpha virt. eigenvalues --    0.97506   1.00550   1.01467   1.03285   1.04644
 Alpha virt. eigenvalues --    1.05948   1.09230   1.11026   1.12668   1.13510
 Alpha virt. eigenvalues --    1.15807   1.17571   1.20289   1.20821   1.27854
 Alpha virt. eigenvalues --    1.28765   1.32038   1.34001   1.36926   1.39492
 Alpha virt. eigenvalues --    1.44910   1.49708   1.52365   1.53479   1.55873
 Alpha virt. eigenvalues --    1.59792   1.69245   1.75195   1.76509   1.78204
 Alpha virt. eigenvalues --    1.81999   1.85392   1.88308   1.90271   1.93753
 Alpha virt. eigenvalues --    1.98303   2.01945   2.04331   2.09956   2.14129
 Alpha virt. eigenvalues --    2.16275   2.17753   2.22180   2.29047   2.32579
 Alpha virt. eigenvalues --    2.34043   2.35237   2.41007   2.42890   2.53474
 Alpha virt. eigenvalues --    2.55491   2.61188   2.68621   2.72207   2.80952
 Alpha virt. eigenvalues --    2.86489   2.91037   2.93681   2.98450   2.98774
 Alpha virt. eigenvalues --    3.01150   3.03507   3.05855   3.10640   3.14131
 Alpha virt. eigenvalues --    3.15823   3.18933   3.19749   3.24091   3.27170
 Alpha virt. eigenvalues --    3.29608   3.31440   3.39087   3.44285   3.48471
 Alpha virt. eigenvalues --    3.61747   3.63097   3.65434   3.73671   3.78456
 Alpha virt. eigenvalues --    3.82344   3.87775   4.19656   4.26271   4.27882
 Alpha virt. eigenvalues --    4.31382   4.44350   4.56577   4.61953   4.66414
 Alpha virt. eigenvalues --    4.85560   5.29060   5.38271   5.94548  26.85570
 Alpha virt. eigenvalues --   26.93896  26.96699  27.00112  27.15495  39.88239
 Alpha virt. eigenvalues --   40.05161
     Molecular Orbital Coefficients:
                           1         2         3         4         5
                           O         O         O         O         O
     Eigenvalues --  -.14262532969384E+02 -.14260914686857E+02 -.10165718851940E+02 -.10155799236331E+02 -.10154957088472E+02
   1 1   N  1S       -.18943463490356E-03 0.55837394500979E+00 -.17622068727329E-05 -.70718207601479E-04 -.40744941800774E-04
   2        2S       -.15818139056794E-03 0.46253405902965E+00 0.11809535332136E-04 -.11684393402367E-03 -.67592408663409E-04
   3        3S       -.21598981732881E-04 0.18659101348737E-01 0.35762038618295E-04 0.90369606737317E-04 -.15100859136180E-03
   4        4S       0.25190894748832E-03 0.69108813914020E-02 -.35813242520189E-03 0.27727593625988E-03 0.92276451364923E-03
   5        5S       0.21759685432393E-03 -.25472576937147E-02 -.14594867486872E-02 -.11036779667597E-01 -.88485824828852E-02
   6        6S       0.10891427254694E-03 -.12358493338693E-02 0.65928376492404E-03 -.86236816936274E-03 -.15130375937644E-02
   7        7S       0.10929992353416E-03 0.98105464330055E-03 -.50479028613990E-03 0.89527503878533E-03 0.19435797875823E-02
   8        8S       -.25827131054706E-04 -.22938335353791E-05 -.11035925541815E-04 -.93169068309925E-04 0.39362028826986E-04
   9        9PX      -.49762570653427E-05 -.11496687182150E-03 0.14178003307031E-04 0.85550109595281E-04 -.18186541890493E-04
  10        9PY      0.25348516437484E-05 0.20274589470475E-02 -.30126071867365E-05 0.30116558927892E-04 -.32234064444859E-04
  11        9PZ      -.10184613739833E-05 0.82558639288687E-04 -.10083634029666E-06 -.90982311954734E-05 0.79817930095745E-05
  12       10PX      0.16497862580619E-04 0.28228135907539E-04 -.77170115821975E-04 0.37403163440624E-03 -.39809172376306E-03
  13       10PY      -.17654197721480E-04 -.15073867938837E-02 0.43595722412684E-04 0.52296586847720E-03 0.43731924398266E-03
  14       10PZ      0.32760744904431E-05 -.39747514200854E-04 -.25792787933993E-06 -.27988896637914E-05 -.10439218978904E-04
  15       11PX      -.38281057914738E-04 -.49938252374530E-03 -.19256763320130E-03 0.17537579211787E-03 0.75840405181241E-04
  16       11PY      0.10475841363077E-04 0.18188798047365E-02 -.42049760564881E-03 0.13338529157990E-03 0.17556212229196E-03
  17       11PZ      -.56777574689541E-04 0.59812109981098E-04 -.59452260137537E-04 -.58778749716054E-04 0.14393230475054E-03
  18       12PX      0.36802824337714E-03 0.38748215961865E-03 0.22661189779389E-03 -.25369860829555E-02 0.16003773753395E-02
  19       12PY      0.30059753067691E-03 -.29190011513161E-03 -.19067530214863E-03 -.39844984900266E-02 -.25611315026055E-02
  20       12PZ      -.17537695993956E-04 -.25689098599080E-04 -.16756206336348E-03 0.41474043169256E-03 -.39876619017379E-03
  21       13PX      -.83933983634399E-04 0.24025955916830E-03 0.36502096696733E-03 0.50937381915840E-05 0.51734599337469E-03
  22       13PY      0.14612947385018E-04 -.14938316611863E-03 0.33932838880151E-03 0.26100022740098E-03 0.23979189201993E-03
  23       13PZ      -.86069012102757E-05 -.42960699702629E-05 -.53221637947794E-04 0.10257126052519E-03 -.37073838702740E-04
  24       14PX      -.52919307842080E-04 -.25113883871679E-03 0.11639724934522E-03 -.12662351918741E-03 -.58938425389019E-03
  25       14PY      -.24758014224576E-04 -.16166752240911E-05 0.26863534060135E-04 -.75420695692747E-04 -.11675412274651E-03
  26       14PZ      0.62565542084374E-05 0.13907350243585E-05 -.13733001147575E-04 -.53074779841846E-04 0.18367279638682E-04
  27       15XX      -.12048619766133E-04 -.62926740867809E-02 0.88651185859480E-04 0.13949835925880E-03 0.21566154093470E-03
  28       15YY      0.61410157409858E-05 -.61902809019838E-02 0.72763513001975E-05 0.15481704153514E-03 0.11427204778624E-03
  29       15ZZ      -.78589847171975E-06 -.60952269046698E-02 0.53863401959226E-04 -.18212965196648E-03 -.20244292113913E-03
  30       15XY      0.31053586460085E-04 -.46682275064777E-04 -.13650296675627E-04 0.25124877268042E-03 -.27628891694191E-03
  31       15XZ      0.28947539996681E-06 0.10869453256952E-04 -.31939325469962E-05 -.23843867368136E-04 -.23841068955529E-04
  32       15YZ      -.92422501738879E-05 0.72185756374999E-05 -.18960136906999E-04 -.75554942256269E-05 0.21536315256552E-04
  33 2   C  1S       -.11550699232908E-05 0.29064114292351E-05 0.12086882914096E-01 -.49598468974393E-02 0.56406709845986E+00
  34        2S       0.94001531803606E-05 -.14732071779644E-04 0.98231309090590E-02 -.40442487435060E-02 0.45937473236280E+00
  35        3S       -.55636897618156E-05 -.14254609811033E-03 0.10065778908658E-02 -.22904446550436E-03 0.19563368211064E-01
  36        4S       -.11181068358314E-01 -.44781736906160E-03 -.11419716941229E-01 0.18263263916445E-02 0.17955188166817E-01
  37        5S       -.18261593784552E-01 0.36641335302968E-02 -.10305222802478E+00 0.31917047653301E-01 -.53180464531328E-01
  38        6PX      -.74296430575120E-04 -.14964634598801E-03 0.66699429511611E-04 -.26794805897580E-05 -.44262931443355E-03
  39        6PY      -.28097623531740E-04 0.89009047163373E-04 0.23413675234103E-04 -.31963039482565E-04 -.27746876218935E-03
  40        6PZ      -.68946255985650E-05 0.23161187508899E-05 0.14296494502902E-05 0.31599835692976E-05 -.13845517385234E-03
  41        7PX      0.77345685819413E-03 0.69788486914602E-03 -.14157252675473E-02 -.26495187301123E-04 0.77663789925016E-03
  42        7PY      0.30594186520508E-03 -.40366167326815E-03 -.59330879363431E-03 0.19618952738499E-03 0.25889839290511E-03
  43        7PZ      0.46938977449205E-04 -.91316162930051E-05 -.73345733715949E-04 -.23740652142396E-06 0.16401006953832E-03
  44        8PX      0.53436162456630E-02 -.35732656445549E-02 0.84942024268248E-02 -.32198913480536E-02 -.42708889351657E-02
  45        8PY      0.21605900833999E-02 0.60167483759229E-03 0.33875661618427E-02 -.22257528363030E-02 -.97309797591105E-03
  46        8PZ      0.48574968129045E-03 0.72662161689372E-04 0.47288092522402E-03 -.36288717141058E-04 -.44892168363269E-03
  47        9PX      0.22769367641430E-02 -.37425184254471E-03 0.55068671644148E-01 0.23045917680628E-01 0.19232554693440E-01
  48        9PY      -.11301564819636E-02 -.14535063022847E-02 0.15551980975579E-01 0.17118255227612E-01 0.18682911876236E-02
  49        9PZ      0.35453506022885E-03 -.15959333399812E-03 0.16962055288958E-02 -.14226766315980E-02 0.10756635605719E-02
  50       10XX      -.50126324025277E-03 0.30070610523434E-03 0.62950026687201E-03 -.23762674790331E-04 -.83761314394568E-02
  51       10YY      0.63603995069738E-04 -.77110874842538E-04 -.12800071898984E-03 0.94175242771778E-04 -.80831572982550E-02
  52       10ZZ      0.10173323089738E-03 -.17859019260088E-04 -.12243739600820E-03 0.33319327349658E-04 -.77295037094375E-02
  53       10XY      -.27979891594542E-03 -.46367298832620E-03 0.36916932767041E-03 0.83598749490833E-04 -.19723838927784E-03
  54       10XZ      -.85373094907078E-04 -.24023333140784E-04 0.30269879389780E-04 0.26881180995160E-04 -.18901763336539E-04
  55       10YZ      -.35652995549120E-04 0.95186325332727E-05 0.86165927020394E-05 0.15824648148396E-05 -.21212467872065E-05
  56 3   C  1S       -.73633971976716E-06 0.53125613233515E-05 0.99120868523479E-04 -.52897318520105E-04 0.67097313184551E-02
  57        2S       0.26675317109540E-05 -.16856727078534E-04 0.63761796301568E-04 -.83312115250799E-04 0.54468757153267E-02
  58        3S       -.15425127813385E-04 0.18264468332850E-03 0.30888276252029E-04 -.50822579015688E-04 0.64763953031743E-03
  59        4S       0.11270576115651E-02 -.47287546179411E-03 0.22086680740297E-02 0.30126710914005E-02 -.34042474663396E-02
  60        5S       0.10630538105066E-01 -.32706031926976E-02 0.36889660606431E-01 -.51840688236180E-01 0.18341523689785E-01
  61        6PX      0.41380341578707E-05 0.11155010541255E-04 0.20247844772136E-04 0.18425465733848E-04 -.62098770798954E-04
  62        6PY      -.10495993014998E-04 0.22148461711810E-04 -.99640923997090E-05 -.22627805762722E-04 -.50519149422906E-05
  63        6PZ      0.61486374339284E-06 -.72330757055979E-05 0.14397934432978E-05 -.41671158634288E-06 -.16993102261874E-05
  64        7PX      -.22752252284189E-04 0.45321170361283E-04 -.22924468034071E-03 -.68405234735354E-04 0.11325951602281E-03
  65        7PY      0.74017360553719E-04 -.29437604056092E-03 -.99570634762207E-04 0.12194418965964E-03 -.99292732108678E-03
  66        7PZ      -.31270536385704E-05 0.34746910649092E-04 -.92927333658742E-05 0.16526250198547E-06 0.50872468497225E-04
  67        8PX      0.68204681374972E-03 0.86337677462988E-03 0.12791670112006E-02 0.67789750719719E-03 -.11382096571152E-03
  68        8PY      -.18026880018242E-04 -.55451382899613E-03 0.41280605777230E-03 -.10015781684410E-02 0.14721281897860E-02
  69        8PZ      -.17186987989492E-04 -.97742092952695E-04 0.41046841705278E-04 0.83628508581625E-04 -.39580884983969E-04
  70        9PX      0.13592862012282E-02 -.14493381577602E-02 0.42208130284119E-02 -.63730481585425E-02 0.60613084352088E-03
  71        9PY      -.17111392189940E-02 -.66544720983955E-03 -.42485876638174E-02 0.10638723182353E-01 -.23221369042709E-02
  72        9PZ      0.18596502931266E-03 -.26018772397148E-04 0.65170454857458E-03 -.45483536507625E-03 0.19944301897048E-03
  73       10XX      0.39266663405108E-04 -.58739456619730E-04 -.14967604376685E-03 -.18351189089875E-03 0.38595729057348E-04
  74       10YY      -.32748556178958E-04 0.41659772728270E-04 0.27313618677236E-04 -.20235608316503E-03 0.58270833420801E-03
  75       10ZZ      0.28363832903808E-05 0.55050904832047E-04 0.24437052393880E-04 -.39647194907573E-04 -.12638930800629E-03
  76       10XY      -.34099322653200E-04 0.79691014819160E-04 0.64899005179522E-04 0.92457582921778E-04 0.13318513338845E-03
  77       10XZ      0.98921227509005E-07 0.20970985581312E-04 -.22508235400469E-04 0.10729377254288E-04 0.16454538605411E-04
  78       10YZ      0.94672793885255E-05 -.13383628514616E-04 0.13232160128951E-04 -.17205023405129E-04 -.46741337369560E-04
  79 4   C  1S       -.10409858616291E-05 0.67879440012857E-05 -.22950660044271E-04 0.29701491078912E-02 0.68710476168177E-04
  80        2S       0.46846377321876E-05 -.23185262040321E-04 0.35538938126536E-05 0.24113016908737E-02 0.27692984290236E-04
  81        3S       0.73549308483090E-04 0.54661499383399E-04 0.31142104534340E-03 0.14460676272681E-03 -.16818285075981E-03
  82        4S       -.15058413466687E-02 0.34710995547339E-03 -.28396853861620E-02 -.23305646146184E-02 0.19093025109137E-02
  83        5S       -.64165795670634E-02 0.41153232815268E-02 -.36388573251876E-01 0.27870238977444E-01 -.23603115705086E-01
  84        6PX      -.14385679173332E-04 -.51392899949935E-04 0.12627645903384E-04 -.17758550976124E-05 -.23018659886666E-04
  85        6PY      -.95692803637196E-05 -.72648125420173E-05 -.13133621303722E-04 0.42297593110918E-04 -.12574482630498E-04
  86        6PZ      -.27967335153840E-05 0.50442413292193E-05 -.52251899687841E-05 0.79602057427065E-06 0.25754213220420E-05
  87        7PX      0.85200120017921E-04 0.18525887098882E-03 -.18428857560381E-03 0.21966288095993E-03 0.18453699788539E-03
  88        7PY      0.41022042741951E-04 -.97089210134346E-04 0.42438704959987E-05 -.73637312570709E-03 0.14446507751160E-03
  89        7PZ      0.12051279555083E-04 -.29001766816756E-04 0.15733132753295E-04 -.57356909330926E-04 -.53035509192195E-05
  90        8PX      0.97134745816834E-03 -.45669582367951E-03 0.31214146260425E-02 0.27686162314483E-03 -.10257584310206E-02
  91        8PY      0.39059390465415E-03 -.36022531580980E-03 0.98537130507976E-03 0.11084187957421E-02 -.10420528266289E-02
  92        8PZ      0.17434896569259E-05 0.74811166122578E-04 -.40874730282712E-04 0.72503058241306E-04 -.78214680299682E-05
  93        9PX      0.11757713701327E-02 -.16263594682247E-02 0.12205954034941E-01 -.14539564095160E-02 0.15517298469362E-02
  94        9PY      0.67315142851898E-03 0.49527293277062E-04 0.67676751626480E-02 -.37138716465781E-02 0.46605369261101E-02
  95        9PZ      0.22787290394811E-04 -.55201866820506E-04 -.10491123743330E-03 -.41417180439297E-03 0.20007269422486E-03
  96       10XX      0.64953962110133E-06 -.61197211720340E-04 0.16929439638481E-03 0.12427869132893E-03 -.21917145775964E-03
  97       10YY      0.98356704968294E-05 -.25933573389304E-05 0.52580200900681E-04 0.55401940278002E-03 -.10329326269698E-03
  98       10ZZ      0.35996330533546E-04 -.15810578686129E-04 0.12569831644665E-03 -.13568960796486E-03 -.89151297347369E-04
  99       10XY      -.23929012385175E-04 -.11473775317638E-03 -.88943641743450E-05 -.19319196539568E-03 -.77066587203719E-04
 100       10XZ      0.19714784278014E-05 0.47914791228792E-05 0.17639318556017E-05 -.31669860662307E-04 -.17121240021574E-05
 101       10YZ      0.57343273224339E-05 0.39453727566660E-05 0.10996323811204E-04 0.56985334178842E-04 0.74035789691165E-05
 102 5   C  1S       -.10420736113248E-06 0.16041745331433E-04 -.43158292231890E-04 0.56431344663447E+00 0.49693910175554E-02
 103        2S       0.12446731711401E-05 -.35787503553376E-04 -.32302127872312E-04 0.45973043430942E+00 0.40392861531071E-02
 104        3S       0.67734927004316E-04 0.31541196602806E-04 0.23385895432894E-03 0.19086230074809E-01 -.11312654864106E-04
 105        4S       -.71113726770863E-03 -.17643252633527E-02 -.98014735969079E-03 0.11652234377198E-01 0.50663232065477E-03
 106        5S       0.12378406236591E-02 0.11675633470115E-02 -.14917698848157E-01 -.18951262018839E-01 0.11191365359132E-01
 107        6PX      -.19860648927037E-04 0.70836139424429E-04 -.13712455768198E-04 -.26298460825244E-05 -.20177533072449E-04
 108        6PY      -.39017334486818E-05 0.55939122175902E-04 0.45880742468811E-05 -.40120886231970E-03 -.15463328043018E-04
 109        6PZ      -.49932719261746E-05 -.61112753859030E-05 -.63807443655077E-05 -.41609263008219E-05 0.62395643319967E-05
 110        7PX      0.95394551685299E-04 -.58984585425098E-03 -.67925640150529E-05 0.24422453791440E-03 0.22958862180816E-03
 111        7PY      0.32418258080918E-04 -.54264008433347E-03 -.33961151896141E-05 0.23118661694051E-03 0.51674675738281E-04
 112        7PZ      0.20229136595824E-04 0.36425018617370E-04 0.34304881829236E-04 -.32162484111022E-05 -.34037705513583E-04
 113        8PX      0.23110615518414E-03 0.10392916677382E-02 0.67739718122060E-03 -.21182891927115E-02 -.28316899281329E-03
 114        8PY      0.28055784781293E-04 0.47513459543090E-03 -.30960258762820E-03 0.41484257927565E-04 -.27365942074874E-03
 115        8PZ      -.84066974461593E-04 -.82161084141440E-04 -.12264510816607E-03 0.23528728601738E-03 0.25534080075467E-04
 116        9PX      -.78568512309244E-03 -.18727652072368E-03 0.57522873756779E-02 0.76389135992739E-02 -.40230642593273E-02
 117        9PY      0.37516306028750E-03 -.72613684498520E-04 -.29911770909358E-03 -.52002509542813E-02 0.40372860968711E-02
 118        9PZ      0.10867239050147E-03 0.59992236753455E-04 -.71090277136081E-03 -.12906604591282E-02 0.67281656944277E-03
 119       10XX      -.30765251245928E-04 0.35159080070459E-03 -.37676884903229E-04 -.76764215531049E-02 -.14708954978379E-03
 120       10YY      0.12174658220731E-04 0.16659906601876E-03 0.42398364628896E-04 -.76249952943886E-02 -.11603387132566E-03
 121       10ZZ      0.28188399006726E-04 -.49891945539799E-04 0.10074360130975E-03 -.73939660361986E-02 -.14722432104915E-03
 122       10XY      -.24081617392297E-04 0.56343622395221E-03 -.32887332204017E-04 0.15691599636791E-03 -.35044610888466E-04
 123       10XZ      0.13752307848699E-04 -.10147933878869E-04 0.17069792485644E-04 0.80188576151057E-04 -.76609297943149E-05
 124       10YZ      -.36048235695267E-05 -.51384512236494E-04 -.97643746045093E-05 -.42716652677062E-04 0.14911494801165E-04
 125 6   C  1S       0.62573113727368E-04 -.43550115003319E-05 0.56381768281032E+00 0.14700934705341E-03 -.12167078751901E-01
 126        2S       -.55903912998805E-04 0.20993066789137E-04 0.45951096564906E+00 0.12717602272040E-03 -.99047764773439E-02
 127        3S       0.20274768732764E-03 0.12649471819327E-03 0.19763174487191E-01 0.14472790791458E-03 0.64943506683526E-04
 128        4S       -.21312675788838E-02 -.16553558691295E-02 0.14883992345306E-01 -.24162545954175E-02 -.43840878568026E-02
 129        5S       0.98125748153327E-02 -.32259519007875E-02 0.12744515657006E+00 0.24513472152055E-01 0.54166879910704E-01
 130        6PX      -.14851841889992E-03 -.17869963768346E-04 0.98737015323829E-04 0.22721993426395E-04 -.10917583245436E-04
 131        6PY      -.51856048917557E-04 0.15895488781885E-04 0.92924752166784E-04 0.27018323102057E-05 -.78952599419347E-05
 132        6PZ      0.25634583678983E-06 -.22411095341434E-05 0.22257127664780E-04 -.30336512668851E-06 0.44019207620151E-06
 133        7PX      -.15406141995915E-02 0.35487343588915E-04 -.13467740948791E-03 -.13823673200179E-03 0.99598179070464E-03
 134        7PY      -.58360565570205E-03 -.81358093919635E-04 -.11343225400363E-03 -.29245979896607E-04 0.38525770057414E-03
 135        7PZ      0.88243692119263E-05 0.11684079142741E-04 -.10221748543763E-03 0.26450612654630E-05 0.55821006298752E-04
 136        8PX      0.14416500092255E-01 -.14236638139242E-02 0.11646456032655E-01 -.29185718384270E-02 -.63792050953378E-02
 137        8PY      0.53994439234568E-02 -.10732697980758E-02 0.45208842971208E-02 -.86517864796379E-03 -.26618792961923E-02
 138        8PZ      0.34270354246827E-03 -.17185538245066E-03 0.63073345863672E-03 -.19610984696337E-03 -.22418102203033E-03
 139        9PX      0.43363884218381E-02 -.85723112203859E-03 0.27458592801006E-01 0.30747799352315E-02 0.12554145027909E-01
 140        9PY      0.21472786292072E-02 -.14266842116868E-03 0.11399677122292E-01 -.11124302688117E-03 0.61078592407616E-02
 141        9PZ      0.10807589156625E-03 0.49700267206895E-04 0.27257107842172E-02 0.14354129178747E-02 0.96163501675351E-03
 142       10XX      0.18781792829404E-02 0.35978337327378E-03 -.86634999613319E-02 0.27303004795467E-04 0.14307151960776E-02
 143       10YY      -.15701069834668E-03 -.32106106928801E-04 -.80219977633178E-02 0.48482678062403E-04 0.32580848360669E-03
 144       10ZZ      -.49677149527634E-03 0.44272741088992E-04 -.79686935235957E-02 0.37469528474144E-04 0.10726906948526E-03
 145       10XY      0.10181252877962E-02 0.20511798334990E-04 -.30899433723157E-03 0.33189028161562E-04 0.54368387852689E-03
 146       10XZ      0.49644671343956E-04 0.63767818890503E-06 -.16124139428741E-04 -.10390399708036E-04 0.72373561361642E-04
 147       10YZ      0.18371668175893E-04 -.18059319573154E-04 -.77169061181316E-05 0.31020695755235E-05 0.23767505503511E-04
 148 7   N  1S       0.55827728283689E+00 0.18990419550390E-03 -.27185380196245E-03 -.79821644350424E-06 0.65198805617531E-05
 149        2S       0.46246310648822E+00 0.15568998739614E-03 -.33283296507556E-03 0.33855823339565E-05 0.22185957905248E-04
 150        3S       0.17788761687937E-01 -.99438480858169E-05 0.38829842157203E-03 0.56088130845676E-04 -.15759435020229E-03
 151        4S       0.15556719052882E-01 -.85370293577991E-03 0.80259447679502E-02 -.14817631696025E-02 -.30746686848440E-02
 152        5S       0.47162395138119E-02 -.29389106659920E-03 -.51740801824451E-02 -.11067986025376E-02 -.40963019547301E-02
 153        6S       -.21835101012314E-04 0.44952693226273E-03 -.73577692153026E-03 0.28166219639372E-03 0.44303101470095E-03
 154        7S       -.16904316643665E-03 -.86868759682168E-03 0.61792562011210E-03 -.63785425113513E-03 -.18254087667448E-02
 155        8S       0.43790232325949E-04 -.22400440131238E-04 -.15364386532333E-04 0.30304078199897E-04 -.54839953674224E-04
 156        9PX      0.20250642108435E-02 0.10543584628664E-04 0.14954744602572E-03 0.86254249971913E-05 -.68883738349081E-05
 157        9PY      0.77208711175066E-03 0.19360571324836E-04 0.51008904299262E-04 -.40778976690049E-05 0.52395676366818E-05
 158        9PZ      -.32303033449920E-04 0.34380855900733E-05 -.83466090238713E-06 0.68954744395620E-05 -.37913420679182E-06
 159       10PX      -.26557165938952E-02 -.12416942247759E-03 0.11901739925440E-02 -.56692263156802E-04 -.35261403988254E-03
 160       10PY      -.99315560767231E-03 -.10515537693221E-03 0.45710946690704E-03 0.77513567012724E-05 -.16194695235011E-03
 161       10PZ      0.51007231019107E-04 -.12961618399797E-04 0.10620011624945E-04 -.30446782441585E-04 0.43349823687980E-05
 162       11PX      0.47730967727925E-02 -.27080880747401E-03 0.22002227065613E-02 -.34683258376838E-03 -.60271148988905E-03
 163       11PY      0.17731659903924E-02 0.93242407674397E-04 0.75871074444684E-03 -.24026985197604E-03 -.74480696940481E-04
 164       11PZ      -.13363426397195E-03 0.63041836557395E-04 -.12868425389588E-03 0.12205572289888E-03 0.95839338876336E-04
 165       12PX      0.54898613872421E-03 -.37201095918744E-04 -.35926650956586E-02 0.95792999131884E-04 -.21273154749745E-02
 166       12PY      0.99549552182100E-04 -.20017845268421E-04 -.14636739550440E-02 0.16491146805054E-03 -.10963425154741E-02
 167       12PZ      -.23041896685023E-04 -.25118670576818E-04 -.53344335533732E-03 -.29126307815103E-03 -.19187750594459E-03
 168       13PX      -.23099527607770E-03 0.19133077823384E-03 -.31123651070519E-03 0.18281599083559E-03 0.25831662532922E-04
 169       13PY      -.10490993843899E-03 -.54647722871660E-05 -.27872465227708E-03 0.22962761333529E-05 -.21462650217557E-03
 170       13PZ      -.57071890149171E-05 -.82761126192291E-05 -.15283846449395E-03 -.10215931546439E-03 -.48817865726119E-04
 171       14PX      0.24007550625506E-04 -.20544405748034E-03 0.15758830872414E-03 -.17459247960337E-03 -.36612558400226E-03
 172       14PY      0.33224205773890E-04 0.36075208867838E-05 0.67155730805191E-05 0.43462926418943E-04 0.78110346670701E-04
 173       14PZ      -.32260058801258E-05 0.25727660690773E-06 0.49010074085720E-04 0.49922378270867E-04 -.17504563660532E-05
 174       15XX      -.70335490495388E-02 -.65593936922481E-04 0.30024053093598E-03 -.80482744503453E-05 -.11496563433737E-03
 175       15YY      -.65800851065967E-02 -.23596365195386E-05 -.23168117666905E-03 0.20031781336913E-04 0.25497215023489E-04
 176       15ZZ      -.64951843137904E-02 0.82204399908014E-05 -.31280775047892E-03 0.25040502535306E-04 0.47484083518053E-04
 177       15XY      -.22603508483765E-03 -.44960266235182E-04 0.26283430388349E-03 -.15096015957839E-04 -.60871404512693E-04
 178       15XZ      0.30158458104884E-05 0.28591603998906E-05 -.18734419019723E-04 0.56472760425223E-05 0.20946710713455E-04
 179       15YZ      0.18385773883160E-05 0.28265427185947E-05 -.63567472026173E-05 0.85199646554792E-06 0.83823160858117E-05
 180 8   H  1S       -.53961261236030E-05 -.24563038297786E-04 -.23568922822597E-04 0.22753367444658E-05 0.18794254807397E-04
 181        2S       -.28709051274599E-05 0.48822394867384E-03 0.67438667483392E-04 0.16631692002949E-03 0.98776882358376E-04
 182        3S       0.74537744484663E-04 0.28293226882999E-03 0.75467670031662E-04 -.19283883312450E-03 -.41058513797892E-03
 183        4S       0.42701768127122E-03 0.50423509746701E-04 0.10121212066737E-02 -.25133510742080E-02 -.50050168859741E-03
 184        5PX      -.22787395855954E-04 0.34754927795592E-04 -.58573040655257E-04 0.23960155803957E-05 -.27758602734391E-04
 185        5PY      0.12300648437623E-04 -.11990815510342E-03 -.84070137106511E-04 -.37588252357813E-04 -.68100369257158E-04
 186        5PZ      0.35542862693139E-05 0.62905688875746E-05 -.18846386407304E-05 -.50012561505121E-05 0.66261535426782E-05
 187 9   H  1S       0.18581682994625E-04 0.10013207603252E-04 0.40830493926263E-04 -.10159571709336E-04 -.10098999964311E-04
 188        2S       -.16110483287754E-03 0.84373941219330E-04 -.48119825782422E-03 -.88071761015019E-04 0.19789089784583E-03
 189        3S       -.21773254456908E-03 0.78908102916912E-04 -.14399367250741E-02 -.29846870409880E-03 0.61059887682852E-03
 190        4S       -.90543188178617E-04 0.52706484534000E-03 -.43002042353290E-02 0.92890049191930E-04 -.62558832988676E-03
 191        5PX      0.12634548234280E-04 -.33218064973715E-04 0.55753344275966E-04 0.22409261836219E-04 -.50474843743283E-04
 192        5PY      0.13043086193604E-04 0.42106619351237E-04 0.65063370720955E-04 0.11338500053463E-03 -.73630969739623E-05
 193        5PZ      -.40317491438859E-05 0.73448799670729E-06 -.11556201509363E-04 -.98716205818372E-06 0.92750822683978E-05
 194 10  H  1S       0.22355164192621E-05 0.18489040858927E-04 0.41518804827096E-05 0.70693863489791E-04 0.27146433147115E-04
 195        2S       -.56563233288921E-05 0.90668611525019E-04 -.31354465494319E-04 0.82553440429751E-03 -.13717853990151E-03
 196        3S       -.35116752152231E-04 -.24835220229601E-03 -.33350005203311E-03 -.11202337620846E-02 0.56419043264753E-03
 197        4S       0.47986166317898E-03 0.11911142277269E-03 -.19015302660877E-02 -.30232386393489E-02 0.19281693611536E-02
 198        5PX      0.12423623817661E-05 -.10940337285535E-03 0.28099408615341E-05 -.53194986280956E-03 0.24545658926881E-04
 199        5PY      -.43774736445141E-05 -.59235222887100E-04 -.19152329002631E-05 0.13714155827053E-03 0.17174848016420E-04
 200        5PZ      0.32245232722454E-05 0.71686719664696E-05 0.21075611158637E-05 0.11516916498716E-03 -.20001452469151E-06
                           6         7         8         9        10
                           O         O         O         O         O
     Eigenvalues --  -.10133189448466E+02 -.10127306388449E+02 -.86638933000332E+00 -.83162812594107E+00 -.70306399806776E+00
   1 1   N  1S       0.47729357607162E-05 0.52740087935172E-05 -.73597205175200E-01 0.22720235673563E-01 0.64593851046025E-01
   2        2S       -.83987759107538E-05 -.13256315657965E-04 -.11556002457716E+00 0.35683938071680E-01 0.10228219912450E+00
   3        3S       0.11876679202531E-04 -.25972347091755E-04 0.31543859356556E+00 -.98171756233780E-01 -.28714894199525E+00
   4        4S       0.52886588529858E-03 0.10565704476853E-02 0.21423719798625E+00 -.65407008753293E-01 -.21351657562081E+00
   5        5S       -.10975908654741E-02 -.12453113066078E-02 -.12468845443861E+00 0.33592181277526E-01 0.40193743362069E-01
   6        6S       0.83992464506263E-03 0.87646284845781E-03 -.18164589053195E-01 0.16272682787364E-01 0.27069276495240E-01
   7        7S       -.76194473754318E-03 -.83312449870390E-03 0.20313291334659E-01 -.25181957467102E-01 -.18935519213674E-01
   8        8S       0.99944357577548E-06 -.25357804971218E-04 -.64025129110978E-04 -.25340941779880E-03 0.25580860817807E-03
   9        9PX      0.60770044279527E-05 -.17164405837282E-04 0.80377039560440E-03 -.56416962601682E-02 -.19107322437966E-01
  10        9PY      0.24657575640740E-04 0.15854024275869E-04 0.52193649771806E-01 -.16971302858799E-01 -.24173633127865E-01
  11        9PZ      -.15192065685322E-05 0.15168545823545E-05 -.27420923479823E-04 0.12402149173023E-03 0.94887508232431E-03
  12       10PX      -.41104884794352E-04 0.85030852093037E-04 -.10452627405191E-02 -.71347272069554E-02 -.26410006798859E-01
  13       10PY      -.73694860095746E-04 -.56965209612858E-04 0.79685606467673E-01 -.26031016842266E-01 -.37510973942251E-01
  14       10PZ      0.79928716696965E-05 -.78938420835652E-05 0.26227796375028E-03 0.92437236527860E-04 0.99081708406399E-03
  15       11PX      0.91558686272638E-04 -.51272698248190E-04 -.50621793334836E-02 -.22279983888848E-02 -.94183174094566E-02
  16       11PY      0.41205643400066E-03 0.42100286543980E-03 0.29751209834150E-01 -.99572459888111E-02 -.14734649981505E-01
  17       11PZ      -.32723414618617E-04 0.52756270706248E-04 0.30496020382359E-03 -.42889696750519E-03 0.57631226514039E-03
  18       12PX      0.58742246973757E-03 -.15000357733836E-02 0.53764164070015E-02 0.14529859592545E-02 0.49837936408994E-03
  19       12PY      -.47227589209722E-03 -.70942814076705E-03 -.31368081696958E-01 0.89580439854824E-02 0.49086061767541E-02
  20       12PZ      0.15644905393006E-03 0.10070847331647E-03 -.44361923502849E-03 -.77591569735822E-03 0.78148980689181E-03
  21       13PX      -.40377779655897E-03 -.24170356221017E-03 0.41863656795605E-02 -.19333250803210E-02 -.60821395307577E-02
  22       13PY      0.23218757873554E-03 0.26405476914354E-03 0.32608904152725E-02 0.12283832768715E-02 0.63266448849747E-02
  23       13PZ      0.11257770885598E-03 0.37719801872908E-04 0.93913732371965E-04 -.20551781932663E-03 0.66483612964353E-03
  24       14PX      0.18978130898122E-03 0.25616903137807E-03 -.51098397040348E-02 0.57200515556683E-02 0.45506816885907E-02
  25       14PY      -.69326236007488E-04 -.38235771178153E-05 -.13463102398604E-02 0.27762996367137E-03 -.11829193837883E-02
  26       14PZ      -.17059202798198E-04 -.18388996736773E-04 -.54097865446028E-04 -.45266561053850E-04 -.94680361557454E-04
  27       15XX      -.11466476838716E-04 -.36916036960606E-04 0.32934017060417E-02 -.73206682266715E-03 -.49817766909182E-02
  28       15YY      -.64727599217601E-04 -.75764586878781E-04 0.64729073573528E-02 -.25245849406295E-02 0.51157355188087E-03
  29       15ZZ      -.22558312261487E-05 -.25692458556233E-04 -.78578159622745E-02 0.21848532731622E-02 0.32760689237476E-02
  30       15XY      0.20182874203785E-04 0.23506233474178E-04 0.79182045466131E-03 -.91099265048122E-03 -.49091842954314E-02
  31       15XZ      -.19858866575056E-05 -.80349108790099E-07 -.63266756244953E-03 0.20694144785252E-03 0.56412188967938E-03
  32       15YZ      0.45133466513007E-05 -.48090696024763E-05 -.36650255872550E-04 -.54523847382817E-05 0.25306959553553E-03
  33 2   C  1S       -.67723172371258E-02 0.63595318424493E-03 -.55555021688298E-01 0.17768902239145E-02 -.17636695958878E-01
  34        2S       -.55334465606660E-02 0.49279613438773E-03 -.84781032482560E-01 0.25539332623523E-02 -.26974245127239E-01
  35        3S       0.16065041423292E-03 -.14320373899039E-03 0.21910780973081E+00 -.77333275672607E-02 0.71873237435529E-01
  36        4S       -.31238858240778E-02 0.56591339893985E-02 0.77356789155976E-01 -.73862712270049E-01 0.31296081584816E-01
  37        5S       0.34034158894779E-01 0.11379018711779E-01 -.51255990387514E-01 -.60516227580778E+00 0.40075641683034E-01
  38        6PX      -.12909541254855E-04 0.12944382924403E-04 0.30459436260891E-01 -.26882199810411E-01 -.22206559437543E-01
  39        6PY      -.64294845243547E-05 0.18131626207266E-04 -.10571668320928E-02 -.45758101506050E-02 0.59472289276382E-01
  40        6PZ      0.53910872727489E-05 -.10986627665782E-04 -.30232636964934E-02 0.13013593855718E-03 -.20343431607367E-03
  41        7PX      0.29613836327080E-03 -.10021179960804E-03 0.52773520098210E-01 -.29324849201721E-01 -.34856709451169E-01
  42        7PY      0.11925142330593E-02 -.21028926655111E-03 -.35198145979581E-02 -.13708439922927E-02 0.90650470519694E-01
  43        7PZ      -.60166873539627E-04 0.49929404318716E-04 -.46229191558458E-02 0.93278233356303E-03 -.12661538680200E-03
  44        8PX      -.29853276455367E-02 -.29261006984993E-02 0.14338647171907E-01 0.29649218688710E-01 -.46376133902291E-02
  45        8PY      -.34771415501669E-02 0.22372933623703E-03 0.14492871070891E-01 0.10746512900768E-01 0.19234732244110E-01
  46        8PZ      0.11018454195869E-03 -.36298936481211E-03 0.39680168320451E-03 0.31063831237899E-02 -.69632261624720E-03
  47        9PX      0.21723011384912E-02 -.62005781088158E-03 0.17451120819145E+00 0.23812278739618E+00 0.15667303517573E-01
  48        9PY      0.85844823153279E-02 0.38229558916367E-02 0.54142013106598E-01 0.64363508923347E-01 0.59939825425750E-01
  49        9PZ      -.11249592435443E-02 0.46341604371443E-03 -.13155614492504E-02 0.10088437006082E-01 0.45969956959638E-03
  50       10XX      0.22005686112972E-03 -.15203360712729E-03 0.17368236823175E-01 -.94462644895173E-02 -.58166032739343E-02
  51       10YY      0.90096500816286E-03 -.25802765591853E-03 0.37915605886635E-02 -.60833830197859E-03 0.10779061459806E-01
  52       10ZZ      0.51414717152002E-04 -.73475901326500E-04 -.10263157612958E-01 0.16036042740669E-02 -.12941270831539E-02
  53       10XY      0.30472256739225E-03 -.16910262077266E-03 -.28011128870669E-02 -.11536039379310E-02 0.15053875447752E-01
  54       10XZ      0.10637237061163E-04 0.62342379988637E-05 -.10588625851007E-02 -.30826153130654E-03 0.87370677397508E-03
  55       10YZ      -.33563140818628E-04 0.42856843831181E-06 0.65683617893329E-04 -.33990459451952E-03 -.96964575474175E-03
  56 3   C  1S       0.56133469252023E+00 -.55254004508932E-01 -.39614795388925E-01 0.92147885086584E-02 -.82205564243206E-01
  57        2S       0.45722815706557E+00 -.44983888561556E-01 -.60701947802319E-01 0.14161732417951E-01 -.12778795818942E+00
  58        3S       0.20018384557139E-01 -.94574516683747E-03 0.15189240648661E+00 -.35721085977231E-01 0.32757023387962E+00
  59        4S       0.16223235712094E-01 -.92915376440493E-02 0.63774952937603E-01 -.59045020429566E-02 0.18774580666203E+00
  60        5S       -.54058318763580E-01 0.21906814955113E-01 -.93800183967075E-01 0.23604442775182E+00 -.10533312512585E+00
  61        6PX      0.35243514176148E-03 0.45483423080662E-04 0.21390888220941E-01 -.10520936322057E-01 0.41196216562478E-01
  62        6PY      -.80873308840882E-04 0.75651971027680E-04 -.25678845819635E-01 0.39880720948344E-02 -.71323944645091E-02
  63        6PZ      0.15708789151415E-03 -.19143888753204E-04 0.16551363581718E-02 -.45910202224920E-03 0.43655580648561E-02
  64        7PX      -.56909404480374E-03 0.15841121050059E-02 0.23042873778194E-01 -.12325438977118E-01 0.48712645526719E-01
  65        7PY      0.29979417157840E-03 -.17592947940182E-03 -.35691207823560E-01 0.65393834312075E-02 -.76525378365682E-02
  66        7PZ      -.16200686730221E-03 0.11684096911591E-03 0.20209653643729E-02 -.55717285051161E-03 0.54625103117932E-02
  67        8PX      0.27653526543590E-02 -.29019438183766E-02 0.12156381485640E-01 -.49465792155870E-03 0.12500299570560E-01
  68        8PY      -.32550730878921E-02 0.15339519643058E-02 -.24139102040172E-02 -.14721115142391E-03 -.27486062096262E-02
  69        8PZ      0.31499208410930E-03 -.18620451757771E-03 -.15542984071215E-03 -.98896341993570E-04 0.20506841709037E-02
  70        9PX      -.81191258816501E-02 0.53098091440639E-02 -.30015140004321E-01 0.39476114016353E-01 -.10890137746357E-01
  71        9PY      0.13334129102634E-01 0.43149018547086E-03 0.34016532202289E-01 -.30342193636863E-01 0.59410194343122E-01
  72        9PZ      -.47857888191642E-03 0.10415976630153E-03 0.54554718428614E-03 0.34825196942758E-02 -.19948760751494E-02
  73       10XX      -.82628006532085E-02 0.18626393818234E-02 0.22068541845410E-02 -.53437594654906E-03 0.89078095019150E-02
  74       10YY      -.85683784030539E-02 0.10975523648657E-02 0.64502390484212E-02 -.16389105789485E-02 0.80384348475536E-03
  75       10ZZ      -.78882817409771E-02 0.83106546756898E-03 -.70041274328377E-02 0.15993054697858E-02 -.11113783139874E-01
  76       10XY      0.13756148100370E-03 -.10909364652576E-03 -.23442831780095E-02 0.14612635000006E-02 0.15532518398537E-02
  77       10XZ      -.18379080866043E-05 0.70321313010466E-04 0.34162421346129E-03 -.85126607494142E-04 0.87287130320756E-03
  78       10YZ      0.26074689277193E-05 -.74153851767197E-05 -.31978026742758E-03 0.12225279505039E-03 -.35226681123671E-03
  79 4   C  1S       0.55067142826418E-01 0.56146109436830E+00 -.35710758335028E-01 0.12411911756554E-01 -.61971481508928E-01
  80        2S       0.44877622753295E-01 0.45734022132234E+00 -.54408397937668E-01 0.19013232951494E-01 -.95982898999240E-01
  81        3S       0.27475467519020E-02 0.19688707510710E-01 0.13776130129917E+00 -.47755919032776E-01 0.24877704752369E+00
  82        4S       -.50642254740823E-02 0.15179862885909E-01 0.57319822199340E-01 -.31514612942192E-01 0.13190276822647E+00
  83        5S       0.29218935357005E-01 -.35062351260354E-01 -.50601134800021E-01 -.19149775813565E+00 -.32608114753382E-01
  84        6PX      -.76205551744303E-04 -.49063175167486E-04 -.19786925777829E-01 0.55091571876738E-02 -.57116271042480E-01
  85        6PY      0.34009899166263E-04 -.15779598666266E-03 -.24571293972632E-01 0.84652334793724E-02 -.27673894609843E-02
  86        6PZ      -.14776730347981E-04 -.97222258441087E-04 -.23887124287671E-02 0.85586507233812E-03 -.34208503221269E-02
  87        7PX      -.14680590330322E-02 0.51981592894627E-03 -.26031654928492E-01 0.74349116938065E-02 -.76013061330584E-01
  88        7PY      -.27268324038379E-03 0.61276230557009E-03 -.36761547660322E-01 0.12792688773213E-01 0.62673298739948E-03
  89        7PZ      -.46095034251144E-04 0.16038256337367E-03 -.34502311299766E-02 0.13428640502807E-02 -.42885898450257E-02
  90        8PX      0.26215258419566E-02 -.38386499732001E-02 0.22623578325302E-02 0.94067741266753E-02 -.98643904957976E-02
  91        8PY      0.11455188292858E-02 -.28527636932344E-02 -.80944817329286E-02 0.63492018364703E-02 0.27718200425081E-02
  92        8PZ      0.91814320255862E-04 -.25368103847275E-03 -.46298343875623E-03 0.25018086213149E-04 -.16252564311036E-02
  93        9PX      -.45666666543906E-02 0.10050223043605E-01 0.13419455529841E-01 0.56539566929948E-01 0.22958330020143E-01
  94        9PY      -.44229223672742E-02 0.62942970134300E-02 0.23904515895444E-01 0.23896043359620E-01 0.21273819129690E-02
  95        9PZ      -.33599022031304E-03 0.50767911137696E-03 -.60068369287863E-03 0.17063127686986E-03 0.12293092972498E-02
  96       10XX      0.14279635405958E-03 -.86590256551987E-02 0.78251132122382E-02 -.24234197394085E-02 0.20429030781326E-01
  97       10YY      -.58033288082404E-03 -.80573941006835E-02 0.55148665723756E-02 -.18773985513130E-02 -.75814903665954E-02
  98       10ZZ      -.75015882379329E-03 -.76875512797271E-02 -.65446156623259E-02 0.24534939436175E-02 -.83052030091399E-02
  99       10XY      0.58624357909136E-04 -.16111219407186E-03 0.40150418271892E-02 -.10185242039374E-02 0.62470110083506E-02
 100       10XZ      0.47891522768755E-04 0.19632410477692E-04 0.31029299914186E-03 -.10178329131866E-03 0.76728037401450E-03
 101       10YZ      0.49661161270138E-05 -.18196920051776E-04 0.85814736611191E-03 -.27001244027115E-03 -.22105050470047E-04
 102 5   C  1S       -.28413548896073E-03 -.30167375624973E-02 -.49886094689791E-01 0.18169825872945E-01 0.22315464860114E-01
 103        2S       -.27286959382460E-03 -.24622127090364E-02 -.76360886485349E-01 0.27909754536124E-01 0.35151775070057E-01
 104        3S       0.15035579818220E-05 -.86886828299977E-04 0.19766566089848E+00 -.72166372556799E-01 -.93393484737968E-01
 105        4S       0.79290992344138E-03 -.22961273002438E-02 0.87107180738601E-01 -.39077934204726E-01 -.52341019154193E-01
 106        5S       -.57248720285864E-02 0.12712018374940E-01 0.28130089279822E-01 -.75767480209454E-01 0.18243408219392E-02
[...]
 131         V       0.18539202758183E+01 0.24508075109492E+01
 132         V       0.18830812121245E+01 0.27604324239555E+01
 133         V       0.19027144464898E+01 0.25809981390215E+01
 134         V       0.19375264808294E+01 0.27058761840873E+01
 135         V       0.19830332670961E+01 0.28712928980701E+01
 136         V       0.20194508592961E+01 0.29389960894570E+01
 137         V       0.20433131251451E+01 0.27986242869963E+01
 138         V       0.20995620531677E+01 0.29801945386929E+01
 139         V       0.21412919554739E+01 0.32627839484878E+01
 140         V       0.21627476579165E+01 0.31901585831219E+01
 141         V       0.21775310903024E+01 0.31672316958088E+01
 142         V       0.22218046784420E+01 0.33341324478534E+01
 143         V       0.22904730017033E+01 0.34799688480344E+01
 144         V       0.23257903787804E+01 0.33351373186338E+01
 145         V       0.23404330782182E+01 0.32988593448975E+01
 146         V       0.23523739288400E+01 0.33571508282058E+01
 147         V       0.24100718985323E+01 0.37604212123035E+01
 148         V       0.24288952508279E+01 0.34738926541936E+01
 149         V       0.25347429061517E+01 0.42038064159088E+01
 150         V       0.25549140556369E+01 0.39010859310001E+01
 151         V       0.26118796527262E+01 0.39734177464861E+01
 152         V       0.26862111897258E+01 0.42079501392764E+01
 153         V       0.27220683668126E+01 0.39031203280637E+01
 154         V       0.28095180254019E+01 0.46791533132285E+01
 155         V       0.28648920404022E+01 0.46543298529059E+01
 156         V       0.29103674661149E+01 0.49483410697444E+01
 157         V       0.29368120308800E+01 0.51623092905281E+01
 158         V       0.29844965189418E+01 0.49222845452178E+01
 159         V       0.29877428222687E+01 0.49737220991117E+01
 160         V       0.30115045583246E+01 0.53167619658845E+01
 161         V       0.30350690470832E+01 0.47265155393515E+01
 162         V       0.30585547949840E+01 0.46050312934577E+01
 163         V       0.31063966168471E+01 0.50207883533286E+01
 164         V       0.31413076113320E+01 0.61483400641528E+01
 165         V       0.31582310251058E+01 0.57241855548051E+01
 166         V       0.31893293364484E+01 0.57403982934141E+01
 167         V       0.31974860377045E+01 0.53152198903993E+01
 168         V       0.32409129488276E+01 0.57472359221022E+01
 169         V       0.32716997445888E+01 0.65422514744909E+01
 170         V       0.32960836883448E+01 0.61983369378485E+01
 171         V       0.33143987765560E+01 0.63938087487872E+01
 172         V       0.33908715036473E+01 0.59572928122644E+01
 173         V       0.34428534144927E+01 0.69843035958622E+01
 174         V       0.34847143074072E+01 0.68962385930284E+01
 175         V       0.36174694928592E+01 0.70768509716243E+01
 176         V       0.36309730592006E+01 0.66518352578105E+01
 177         V       0.36543396424783E+01 0.70014912642419E+01
 178         V       0.37367067331005E+01 0.71070213326456E+01
 179         V       0.37845614901048E+01 0.64415034373751E+01
 180         V       0.38234429881058E+01 0.71364168396374E+01
 181         V       0.38777482838525E+01 0.67137310444416E+01
 182         V       0.41965589173553E+01 0.90065948333791E+01
 183         V       0.42627051684022E+01 0.85201963406598E+01
 184         V       0.42788193241239E+01 0.81287269821393E+01
 185         V       0.43138203970568E+01 0.84961090939215E+01
 186         V       0.44435042510762E+01 0.74912613539058E+01
 187         V       0.45657655455102E+01 0.78835093091548E+01
 188         V       0.46195326158390E+01 0.92290614468615E+01
 189         V       0.46641431999122E+01 0.90174424280693E+01
 190         V       0.48555950642942E+01 0.85497079514309E+01
 191         V       0.52905959677158E+01 0.92714837042956E+01
 192         V       0.53827090983076E+01 0.10310788718833E+02
 193         V       0.59454834928999E+01 0.10508363287534E+02
 194         V       0.26855701039148E+02 0.62343827120803E+02
 195         V       0.26938961194730E+02 0.62419946015917E+02
 196         V       0.26966992198992E+02 0.62442654520086E+02
 197         V       0.27001117937057E+02 0.62493425613719E+02
 198         V       0.27154952023440E+02 0.62599837238577E+02
 199         V       0.39882394837844E+02 0.91294524048332E+02
 200         V       0.40051607932595E+02 0.91455591033151E+02
 Total kinetic energy from orbitals= 2.997753900923D+02
 No NMR shielding tensors so no spin-rotation constants.
 Leave Link  601 at Fri May 26 03:03:10 2023, MaxMem= 3276800000 cpu:       2.6
 (Enter /local/g09-source/g09/l701.exe)
 Compute integral first derivatives.
 ... and contract with generalized density number  6.
 R6Disp: Adding dispersion energy 1st derivatives to the gradient.
 Leave Link  701 at Fri May 26 03:03:10 2023, MaxMem= 3276800000 cpu:       2.4
 (Enter /local/g09-source/g09/l702.exe)
 L702 exits ... SP integral derivatives will be done elsewhere.
 Leave Link  702 at Fri May 26 03:03:10 2023, MaxMem= 3276800000 cpu:       0.5
 (Enter /local/g09-source/g09/l703.exe)
 Compute integral first derivatives, UseDBF=F ICtDFT=           0.
 Integral derivatives from FoFDir, PRISM(SPDF).
 Calling FoFJK, ICntrl=      5127 FMM=F ISym2X=0 I1Cent= 0 IOpClX= 0 NMat=1 NMatS=1 NMatT=0.
 FoFJK:  IHMeth= 1 ICntrl=  5127 DoSepK=T KAlg= 1 I1Cent= 0 FoldK=F
 FoFCou: FMM=F IPFlag=           0 FMFlag=      100000 FMFlg1=         800
         NFxFlg=           0 DoJE=F BraDBF=F KetDBF=F FulRan=T
         Omega=  0.000000  0.000000  1.000000  0.000000  0.000000 ICntrl=    5527 IOpCl=  0
         NMat0=    1 NMatS0=    1 NMatT0=    0 NMatD0=    1 NMtDS0=    0 NMtDT0=    0
         I1Cent=           0 NGrid=           0.
 Symmetry not used in FoFCou.
 Leave Link  703 at Fri May 26 03:03:33 2023, MaxMem= 3276800000 cpu:     227.9
 (Enter /local/g09-source/g09/l716.exe)
 Dipole        =-1.04274178D+01 6.19580552D-01 4.35620033D-02
 -------------------------------------------------------------------
 Center     Atomic                   Forces (Hartrees/Bohr)
 Number     Number              X              Y              Z
 -------------------------------------------------------------------
      1        7          -0.005247673    0.036584189   -0.003739349
      2        6           0.017897042   -0.032249247   -0.013668954
      3        6          -0.054818987    0.073326275    0.012398558
      4        6           0.178963044   -0.003139645   -0.020680618
      5        6          -0.003414222   -0.058215156   -0.005562908
      6        6          -0.020831774   -0.019502523    0.007456826
      7        7           0.037436479    0.015564881   -0.002175553
      8        1           0.006554533   -0.044360425   -0.000515514
      9        1          -0.079537669    0.004894092    0.005778213
     10        1          -0.077000774    0.027097560    0.020709301
 -------------------------------------------------------------------
 Cartesian Forces:  Max     0.178963044 RMS     0.046677948
 Z-matrix is all fixed cartesians, so copy forces.
 Force constants in Cartesian coordinates: 
                1             2             3             4             5 
      1  0.609572D+00
      2  0.839148D-01  0.542010D+00
      3 -0.313698D-01 -0.568507D-04  0.426511D-01
      4 -0.294826D+00  0.995114D-01  0.333945D-01  0.107271D+01
      5  0.141210D+00 -0.228269D+00 -0.647531D-01 -0.526319D+00  0.231727D+01
      6  0.996116D-02 -0.800778D-02 -0.351891D-01  0.632209D-01 -0.160317D+00
      7  0.187690D-01  0.276236D-01 -0.227658D-02 -0.196407D+00 -0.594177D-01
      8 -0.412483D-02 -0.612097D-02  0.949979D-03 -0.368796D-01 -0.427591D+00
      9 -0.102927D-02 -0.173368D-02  0.579340D-02 -0.167746D-01  0.714437D-01
     10  0.214651D-01 -0.232864D-01 -0.174242D-02  0.259932D-02 -0.537603D-03
     11  0.917027D-02 -0.100363D-01 -0.207798D-02 -0.366912D-01  0.772137D-02
     12 -0.682591D-03  0.116550D-02  0.925132D-02  0.318916D-02 -0.100418D-02
     13 -0.343434D+00 -0.185365D+00  0.199075D-01 -0.137032D-01 -0.200521D-01
     14 -0.230775D+00 -0.336518D+00  0.618822D-02  0.148155D-01  0.217761D-01
     15  0.210612D-01  0.585508D-02 -0.348548D-01  0.112747D-02  0.100564D-02
     16 -0.603530D-02 -0.579741D-02 -0.443823D-01 -0.852684D+00  0.116864D+01
     17  0.157343D-01  0.149279D-01  0.118428D+00  0.117021D+01 -0.356854D+01
     18  0.180125D-02  0.301133D-02 -0.547336D-02 -0.152710D+00  0.350238D+00
     19 -0.441288D-03 -0.226076D-02  0.235955D-01  0.259522D+00 -0.698488D+00
     20  0.118814D-02  0.608697D-02 -0.635296D-01 -0.698756D+00  0.188065D+01
     21 -0.127490D-03 -0.653144D-03  0.681686D-02  0.714746D-01 -0.198603D+00
     22  0.212313D-04  0.858196D-05  0.328736D-03  0.227124D-01 -0.499162D-02
     23  0.844520D-05  0.341366D-05  0.130762D-03  0.142764D-01 -0.314908D-02
     24  0.325336D-03  0.131505D-03  0.503737D-02 -0.243619D-02  0.130400D-02
     25  0.109812D-04 -0.517996D-05  0.112952D-03  0.453043D-04 -0.435481D-04
     26 -0.748687D-05  0.353163D-05 -0.770089D-04 -0.139071D-03  0.133680D-03
     27  0.139383D-03 -0.657483D-04  0.143367D-02 -0.691937D-03  0.665114D-03
     28 -0.510220D-02  0.565605D-02  0.243187D-02  0.346371D-04  0.344304D-05
     29 -0.163178D-01  0.179128D-01  0.479717D-02 -0.252470D-04 -0.250963D-05
     30 -0.791740D-04  0.353799D-03  0.453360D-02  0.205724D-03  0.204496D-04
                6             7             8             9            10 
      6  0.195526D+00
      7  0.261982D-02  0.977986D+00
      8  0.196960D-01  0.162986D-02  0.829066D+00
      9 -0.874286D-01  0.229052D-01 -0.388032D-02  0.263147D+00
     10  0.574971D-03 -0.658888D+00 -0.564003D-01 -0.293537D-01  0.999337D+00
     11 -0.743748D-02 -0.242280D-01 -0.200593D+00 -0.178570D-01  0.307111D-01
     12 -0.959995D-02 -0.267149D-01 -0.145449D-01 -0.189360D+00  0.184131D-02
     13  0.495340D-03 -0.264126D-02  0.327540D-01  0.291532D-02 -0.171698D+00
     14  0.204283D-03 -0.107405D-02  0.136941D-01  0.682497D-03  0.799890D-01
     15 -0.481347D-02 -0.679150D-03  0.294314D-02  0.497946D-02  0.158323D-01
     16 -0.149308D+00  0.850720D-02 -0.127804D-03  0.430692D-01  0.150468D-04
     17  0.351429D+00 -0.228593D-01  0.237199D-03 -0.118369D+00 -0.112214D-04
     18 -0.157567D+00  0.214199D-02  0.698425D-03  0.290048D-01 -0.197131D-03
     19  0.731908D-01  0.180477D-02 -0.134593D-02 -0.236447D-01  0.000000D+00
     20 -0.196963D+00 -0.485925D-02  0.362384D-02  0.636620D-01  0.000000D+00
     21  0.630301D-01  0.521407D-03 -0.388846D-03 -0.683106D-02  0.000000D+00
     22 -0.608878D-03 -0.150220D+00  0.785268D-01  0.239887D-02 -0.186682D-02
     23 -0.668474D-03  0.854543D-01 -0.237285D+00 -0.142507D-02 -0.113162D-02
     24  0.191700D-01  0.529373D-02 -0.837048D-02 -0.908121D-01 -0.259460D-02
     25 -0.836190D-03  0.110478D-02 -0.139925D-01 -0.864209D-03 -0.197294D+00
     26  0.256686D-02 -0.226945D-02  0.249686D-01  0.747565D-02 -0.493860D-01
     27  0.127712D-01 -0.373433D-02  0.308925D-02  0.696808D-01  0.152494D-01
     28  0.690578D-03 -0.159624D-04 -0.397805D-04  0.377868D-03  0.633059D-02
     29 -0.503363D-03  0.000000D+00  0.000000D+00  0.157129D-05  0.200531D-01
     30  0.410162D-02 -0.771561D-04 -0.192283D-03  0.182646D-02  0.389875D-03
               11            12            13            14            15 
     11  0.591641D+00
     12  0.485550D-01  0.350133D+00
     13  0.551362D-01  0.118168D-01  0.700349D+00
     14 -0.295234D+00 -0.164197D-01  0.102022D+00  0.698165D+00
     15 -0.215151D-01 -0.620470D-01 -0.658982D-01  0.210996D-01  0.122325D+00
     16 -0.144635D-04 -0.277722D-03 -0.184559D-05  0.000000D+00 -0.367965D-04
     17  0.107864D-04  0.207115D-03 -0.945513D-05  0.000000D+00 -0.188512D-03
     18  0.189490D-03  0.363850D-02  0.986832D-04  0.980943D-05  0.196750D-02
     19  0.000000D+00  0.000000D+00  0.000000D+00  0.000000D+00  0.000000D+00
     20  0.000000D+00  0.000000D+00  0.000000D+00  0.000000D+00  0.000000D+00
     21  0.000000D+00  0.000000D+00  0.000000D+00  0.000000D+00  0.000000D+00
     22  0.248671D-01 -0.386916D-03  0.128149D-04  0.319365D-04 -0.303359D-03
     23  0.154579D-01 -0.814476D-03  0.121244D-04  0.302156D-04 -0.287012D-03
     24  0.888650D-02  0.382355D-01 -0.273439D-03 -0.681447D-03  0.647294D-02
     25 -0.616157D-01  0.108433D-01  0.109314D-01  0.467151D-02 -0.164786D-03
     26 -0.117911D+00 -0.125660D-01 -0.194129D-01 -0.835399D-02  0.956239D-03
     27 -0.814977D-02 -0.148955D+00 -0.131891D-02 -0.124194D-02  0.779155D-02
     28  0.266460D-02  0.371559D-03 -0.179815D+00  0.303194D-01  0.290613D-01
     29  0.894287D-02 -0.457831D-02  0.349144D-01 -0.935582D-01 -0.986911D-02
     30 -0.593624D-03  0.870452D-02  0.322569D-01 -0.984136D-02 -0.418212D-01
               16            17            18            19            20 
     16  0.248289D+01
     17 -0.232967D+01  0.789348D+01
     18  0.311539D+00 -0.793631D+00  0.274021D+00
     19 -0.163272D+01  0.116663D+01 -0.162306D+00  0.137184D+01
     20  0.116697D+01 -0.434011D+01  0.439631D+00 -0.464539D+00  0.244976D+01
     21 -0.161033D+00  0.442445D+00 -0.139954D+00  0.891648D-01 -0.242800D+00
     22  0.280770D-04 -0.209388D-04 -0.367843D-03  0.000000D+00  0.000000D+00
     23  0.111682D-04 -0.832886D-05 -0.146318D-03  0.000000D+00  0.000000D+00
     24  0.430237D-03 -0.320855D-03 -0.563663D-02  0.000000D+00  0.000000D+00
     25  0.000000D+00  0.000000D+00  0.000000D+00  0.000000D+00  0.000000D+00
     26  0.000000D+00  0.000000D+00  0.000000D+00  0.000000D+00  0.000000D+00
     27  0.000000D+00  0.000000D+00  0.000000D+00  0.000000D+00  0.000000D+00
     28  0.000000D+00  0.000000D+00  0.000000D+00  0.000000D+00  0.000000D+00
     29  0.000000D+00  0.000000D+00  0.000000D+00  0.000000D+00  0.000000D+00
     30  0.000000D+00  0.000000D+00  0.000000D+00  0.000000D+00  0.000000D+00
               21            22            23            24            25 
     21  0.769381D-01
     22  0.000000D+00  0.129364D+00
     23  0.000000D+00 -0.985816D-01  0.224800D+00
     24  0.000000D+00 -0.185527D-02  0.245875D-02  0.444891D-01
     25  0.000000D+00 -0.520301D-04 -0.492264D-04  0.111020D-02  0.185283D+00
     26  0.000000D+00  0.159717D-03  0.151111D-03 -0.340797D-02  0.710347D-01
     27  0.000000D+00  0.794660D-03  0.751840D-03 -0.169561D-01 -0.100555D-01
     28  0.000000D+00  0.000000D+00  0.000000D+00  0.000000D+00 -0.301542D-04
     29  0.000000D+00  0.000000D+00  0.000000D+00  0.000000D+00  0.000000D+00
     30  0.000000D+00  0.000000D+00  0.000000D+00  0.000000D+00 -0.145754D-03
               26            27            28            29            30 
     26  0.101008D+00
     27  0.495284D-02  0.760844D-01
     28  0.205588D-04 -0.382742D-03  0.178598D+00
     29  0.000000D+00 -0.159156D-05 -0.386242D-01  0.667051D-01
     30  0.993729D-04 -0.185002D-02 -0.325504D-01  0.101536D-01  0.245050D-01
 Leave Link  716 at Fri May 26 03:03:33 2023, MaxMem= 3276800000 cpu:       0.5
 (Enter /local/g09-source/g09/l103.exe)

 GradGradGradGradGradGradGradGradGradGradGradGradGradGradGradGradGradGrad
 Berny optimization.
 Search for a local minimum.
 Step number   1 out of a maximum of    2
 All quantities printed in internal units (Hartrees-Bohrs-Radians)
 Second derivative matrix not updated -- first step.
     Eigenvalues ---    0.00786   0.01380   0.02650   0.04950   0.06043
     Eigenvalues ---    0.06258   0.10247   0.10779   0.11868   0.16449
     Eigenvalues ---    0.18135   0.22916   0.32378   0.35891   0.46249
     Eigenvalues ---    0.56803   0.62000   0.88536   1.02269   1.24392
     Eigenvalues ---    1.36307   1.72176   2.68582  13.40457
 Quadratic step=1.128D+00 exceeds max=3.000D-01 adjusted using Lamda=-2.749D-01.
 Angle between NR and scaled steps=  42.10 degrees.
 Angle between quadratic step and forces=  35.29 degrees.
 Linear search not attempted -- first point.
 TrRot=  0.016996  0.000993 -0.003526  2.401406 -0.001429 -2.404208
 Variable       Old X    -DE/DX   Delta X   Delta X   Delta X     New X
                                 (Linear)    (Quad)   (Total)
    X1        1.79831  -0.00525   0.00000  -0.03703  -0.02490   1.77341
    Y1       -1.75591   0.03658   0.00000   0.02650   0.02257  -1.73334
    Z1       -0.00211  -0.00374   0.00000  -0.00659  -0.01364  -0.01575
    X2       -0.45578   0.01790   0.00000   0.00661   0.02308  -0.43270
    Y2       -0.21607  -0.03225   0.00000  -0.00075   0.00142  -0.21464
    Z2        0.10327  -0.01367   0.00000  -0.02529  -0.02855   0.07472
    X3        0.11306  -0.05482   0.00000   0.02034   0.04420   0.15726
    Y3        2.38498   0.07333   0.00000   0.05715   0.05774   2.44272
    Z3       -0.00137   0.01240   0.00000   0.01955   0.01823   0.01686
    X4        2.56496   0.17896   0.00000   0.13031   0.15458   2.71955
    Y4        2.57096  -0.00314   0.00000  -0.00633  -0.01299   2.55797
    Z4        0.12178  -0.02068   0.00000  -0.02250  -0.02642   0.09537
    X5        3.67018  -0.00341   0.00000  -0.02260  -0.00595   3.66423
    Y5       -0.02325  -0.05822   0.00000  -0.05523  -0.06436  -0.08762
    Z5       -0.10464  -0.00556   0.00000   0.00251  -0.00495  -0.10959
    X6       -2.96888  -0.02083   0.00000   0.00360   0.01728  -2.95160
    Y6       -1.16425  -0.01950   0.00000  -0.01462  -0.00529  -1.16953
    Z6       -0.03458   0.00746   0.00000   0.00813   0.00661  -0.02797
    X7       -5.04608   0.03744   0.00000   0.03031   0.04182  -5.00427
    Y7       -1.93555   0.01556   0.00000  -0.01807  -0.00298  -1.93853
    Z7       -0.03275  -0.00218   0.00000  -0.00095  -0.00105  -0.03380
    X8       -1.04171   0.00655   0.00000  -0.01472   0.01397  -1.02774
    Y8        4.22682  -0.04436   0.00000  -0.06881  -0.06491   4.16191
    Z8        0.02618  -0.00052   0.00000   0.01102   0.01261   0.03878
    X9        4.58563  -0.07954   0.00000  -0.13187  -0.10431   4.48132
    Y9        3.71544   0.00489   0.00000   0.05226   0.04074   3.75618
    Z9        0.02406   0.00578   0.00000  -0.00386  -0.00848   0.01559
   X10        5.93263  -0.07700   0.00000  -0.17427  -0.15976   5.77287
   Y10       -0.72840   0.02710   0.00000   0.04269   0.02805  -0.70035
   Z10       -0.57210   0.02071   0.00000   0.05592   0.04564  -0.52645
         Item               Value     Threshold  Converged?
 Maximum Force            0.178963     0.000450     NO 
 RMS     Force            0.046678     0.000300     NO 
 Maximum Displacement     0.159764     0.001800     NO 
 RMS     Displacement     0.053215     0.001200     NO 
 Predicted change in Energy=-4.367768D-02
 GradGradGradGradGradGradGradGradGradGradGradGradGradGradGradGradGradGrad

 Leave Link  103 at Fri May 26 03:03:33 2023, MaxMem= 3276800000 cpu:       0.2
 (Enter /local/g09-source/g09/l9999.exe)

 Test job not archived.
 1\1\GINC-WUX11\Force\RTD-wB97XD-Full\Gen\C5H3N2(1-)\ISSLERK\26-May-202
 3\0\\#p TD(full,nstates=1,root=1) Force wB97XD/GEN 6D Iop(6/7=3) Iop(9
 /40=14) scf(maxcyc=200,conver=8) nosym Guess(Read) Geom=AllCheck\\Comm
 ent\\-1,1\N,0.951625761,-0.929187012,-0.001117508\C,-0.241188244,-0.11
 4338,0.054647412\C,0.059828731,1.262076773,-0.000726227\C,1.357319909,
 1.360495858,0.064445475\C,1.942176942,-0.012305713,-0.055371547\C,-1.5
 71063974,-0.616094058,-0.018298916\N,-2.670272354,-1.024246633,-0.0173
 28757\H,-0.55125113,2.236738023,0.01385189\H,2.426612692,1.966126872,0
 .012732658\H,3.139414519,-0.38545324,-0.302740791\\Version=EM64L-G09Re
 vA.02\HF=-301.7550025\RMSD=4.948e-09\RMSF=4.668e-02\Dipole=-10.3362812
 ,0.6767703,0.0380495\PG=C01 [X(C5H3N2)]\\@


 SIC AS THE CAWSE OF EWERY THING IS, SIC WILBE THE EFFECT.
 -- PROVERBS AND REASONS OF THE YEAR 1585
           AS REPRINTED IN PAISLEY MAGAZINE 1828.
 Job cpu time:  0 days  0 hours 55 minutes 29.0 seconds.
 File lengths (MBytes):  RWF=     52 Int=      0 D2E=      0 Chk=      6 Scr=      1
 Normal termination of Gaussian 09 at Fri May 26 03:03:34 2023.
