 Entering Gaussian System, Link 0=g09
 Input=an.in2
 Output=an.log2
 Initial command:
 /local/g09-source/g09/l1.exe /scratch/1505212/TRAJ_40/Gau-39861.inp -scrdir=/scratch/1505212/TRAJ_40/
 Entering Link 1 = /local/g09-source/g09/l1.exe PID=     39864.
  
 Copyright (c) 1988,1990,1992,1993,1995,1998,2003,2009, Gaussian, Inc.
                  All Rights Reserved.
  
 This is part of the Gaussian(R) 09 program.  It is based on
 the Gaussian(R) 03 system (copyright 2003, Gaussian, Inc.),
 the Gaussian(R) 98 system (copyright 1998, Gaussian, Inc.),
 the Gaussian(R) 94 system (copyright 1995, Gaussian, Inc.),
 the Gaussian 92(TM) system (copyright 1992, Gaussian, Inc.),
 the Gaussian 90(TM) system (copyright 1990, Gaussian, Inc.),
 the Gaussian 88(TM) system (copyright 1988, Gaussian, Inc.),
 the Gaussian 86(TM) system (copyright 1986, Carnegie Mellon
 University), and the Gaussian 82(TM) system (copyright 1983,
 Carnegie Mellon University). Gaussian is a federally registered
 trademark of Gaussian, Inc.
  
 This software contains proprietary and confidential information,
 including trade secrets, belonging to Gaussian, Inc.
  
 This software is provided under written license and may be
 used, copied, transmitted, or stored only in accord with that
 written license.
  
 The following legend is applicable only to US Government
 contracts under FAR:
  
                    RESTRICTED RIGHTS LEGEND
  
 Use, reproduction and disclosure by the US Government is
 subject to restrictions as set forth in subparagraphs (a)
 and (c) of the Commercial Computer Software - Restricted
 Rights clause in FAR 52.227-19.
  
 Gaussian, Inc.
 340 Quinnipiac St., Bldg. 40, Wallingford CT 06492
  
  
 ---------------------------------------------------------------
 Warning -- This program may not be used in any manner that
 competes with the business of Gaussian, Inc. or will provide
 assistance to any competitor of Gaussian, Inc.  The licensee
 of this program is prohibited from giving any competitor of
 Gaussian, Inc. access to this program.  By using this program,
 the user acknowledges that Gaussian, Inc. is engaged in the
 business of creating and licensing software in the field of
 computational chemistry and represents and warrants to the
 licensee that it is not a competitor of Gaussian, Inc. and that
 it will not use this program in any manner prohibited above.
 ---------------------------------------------------------------
  

 Cite this work as:
 Gaussian 09, Revision A.02,
 M. J. Frisch, G. W. Trucks, H. B. Schlegel, G. E. Scuseria, 
 M. A. Robb, J. R. Cheeseman, G. Scalmani, V. Barone, B. Mennucci, 
 G. A. Petersson, H. Nakatsuji, M. Caricato, X. Li, H. P. Hratchian, 
 A. F. Izmaylov, J. Bloino, G. Zheng, J. L. Sonnenberg, M. Hada, 
 M. Ehara, K. Toyota, R. Fukuda, J. Hasegawa, M. Ishida, T. Nakajima, 
 Y. Honda, O. Kitao, H. Nakai, T. Vreven, J. A. Montgomery, Jr., 
 J. E. Peralta, F. Ogliaro, M. Bearpark, J. J. Heyd, E. Brothers, 
 K. N. Kudin, V. N. Staroverov, R. Kobayashi, J. Normand, 
 K. Raghavachari, A. Rendell, J. C. Burant, S. S. Iyengar, J. Tomasi, 
 M. Cossi, N. Rega, J. M. Millam, M. Klene, J. E. Knox, J. B. Cross, 
 V. Bakken, C. Adamo, J. Jaramillo, R. Gomperts, R. E. Stratmann, 
 O. Yazyev, A. J. Austin, R. Cammi, C. Pomelli, J. W. Ochterski, 
 R. L. Martin, K. Morokuma, V. G. Zakrzewski, G. A. Voth, 
 P. Salvador, J. J. Dannenberg, S. Dapprich, A. D. Daniels, 
 O. Farkas, J. B. Foresman, J. V. Ortiz, J. Cioslowski, 
 and D. J. Fox, Gaussian, Inc., Wallingford CT, 2009.
 
 ******************************************
 Gaussian 09:  EM64L-G09RevA.02 11-Jun-2009
                26-May-2023 
 ******************************************
 %Chk=an.chk
 %Nproc=10
 Will use up to   10 processors via shared memory.
 %Mem=25000Mb
 ----------------------------------------------------------------------
 #p wB97XD/GEN 6D Iop(6/7=3) Iop(9/40=14) scf(maxcyc=200,conver=8) nosy
 m Guess(Read,TCheck) GFInput
 ----------------------------------------------------------------------
 1/38=1/1;
 2/12=2,15=1,17=6,18=5,40=1/2;
 3/5=7,8=2,11=2,16=1,24=10,25=1,30=1,74=-58/1,2,3;
 4/5=102/1;
 5/5=2,6=8,7=200/2;
 6/7=3,8=2,9=2,10=2,28=1/1;
 99/5=1,9=1/99;
 Leave Link    1 at Fri May 26 02:37:48 2023, MaxMem= 3276800000 cpu:       0.5
 (Enter /local/g09-source/g09/l101.exe)
 -------
 Comment
 -------
 Symbolic Z-matrix:
 Charge = -1 Multiplicity = 1
 N                     0.95192  -0.92824  -0.00245 
 C                    -0.24178  -0.11387   0.05725 
 C                     0.05961   1.26109  -0.00144 
 C                     1.35842   1.35937   0.06361 
 C                     1.94368  -0.01102  -0.05511 
 C                    -1.5719   -0.61829  -0.01932 
 N                    -2.67037  -1.02325  -0.01686 
 H                    -0.54813   2.24307   0.01014 
 H                     2.4196    1.96237   0.02187 
 H                     3.12924  -0.38467  -0.29959 
 
 NAtoms=     10 NQM=     10 NQMF=      0 NMic=      0 NMicF=      0 NTot=     10.
                    Isotopes and Nuclear Properties:
 (Nuclear quadrupole moments (NQMom) in fm**2, nuclear magnetic moments (NMagM)
  in nuclear magnetons)

  Atom         1           2           3           4           5           6           7           8           9          10
 IAtWgt=          14          12          12          12          12          12          14           1           1           1
 AtmWgt=  14.0030740  12.0000000  12.0000000  12.0000000  12.0000000  12.0000000  14.0030740   1.0078250   1.0078250   1.0078250
 NucSpn=           2           0           0           0           0           0           2           1           1           1
 AtZEff=   0.0000000   0.0000000   0.0000000   0.0000000   0.0000000   0.0000000   0.0000000   0.0000000   0.0000000   0.0000000
 NQMom=    2.0440000   0.0000000   0.0000000   0.0000000   0.0000000   0.0000000   2.0440000   0.0000000   0.0000000   0.0000000
 NMagM=    0.4037610   0.0000000   0.0000000   0.0000000   0.0000000   0.0000000   0.4037610   2.7928460   2.7928460   2.7928460
 Leave Link  101 at Fri May 26 02:37:48 2023, MaxMem= 3276800000 cpu:       1.0
 (Enter /local/g09-source/g09/l202.exe)
                          Input orientation:                          
 ---------------------------------------------------------------------
 Center     Atomic      Atomic             Coordinates (Angstroms)
 Number     Number       Type             X           Y           Z
 ---------------------------------------------------------------------
      1          7           0        0.951920   -0.928238   -0.002453
      2          6           0       -0.241784   -0.113870    0.057253
      3          6           0        0.059605    1.261091   -0.001439
      4          6           0        1.358420    1.359373    0.063605
      5          6           0        1.943684   -0.011023   -0.055110
      6          6           0       -1.571898   -0.618290   -0.019320
      7          7           0       -2.670372   -1.023247   -0.016861
      8          1           0       -0.548133    2.243069    0.010142
      9          1           0        2.419596    1.962365    0.021870
     10          1           0        3.129240   -0.384669   -0.299588
 ---------------------------------------------------------------------
                    Distance matrix (angstroms):
                    1          2          3          4          5
     1  N    0.000000
     2  C    1.446268   0.000000
     3  C    2.364189   1.408829   0.000000
     4  C    2.324387   2.175118   1.304151   0.000000
     5  C    1.351907   2.190770   2.273963   1.494862   0.000000
     6  C    2.542835   1.424607   2.488814   3.536212   3.567824
     7  N    3.623566   2.594320   3.559665   4.681295   4.723936
     8  H    3.508206   2.377232   1.154885   2.102075   3.360705
     9  H    3.241952   3.375641   2.462090   1.221244   2.031423
    10  H    2.263731   3.400657   3.495723   2.511852   1.266856
                    6          7          8          9         10
     6  C    0.000000
     7  N    1.170744   0.000000
     8  H    3.039135   3.895311   0.000000
     9  H    4.753262   5.901115   2.980998   0.000000
    10  H    4.715276   5.841508   4.530344   2.472954   0.000000
 Symmetry turned off by external request.
 Stoichiometry    C5H3N2(1-)
 Framework group  C1[X(C5H3N2)]
 Deg. of freedom    24
 Full point group                 C1      NOp   1
 Rotational constants (GHZ):      8.6469306      2.0193622      1.6389784
 Leave Link  202 at Fri May 26 02:37:48 2023, MaxMem= 3276800000 cpu:       0.0
 (Enter /local/g09-source/g09/l301.exe)
 General basis read from cards:  (6D, 7F)
 Centers:   8  9 10
 S 3 1.0
     Exponent=  3.3865000000D+01 Coefficients=  2.5493800000D-02
     Exponent=  5.0947900000D+00 Coefficients=  1.9037300000D-01
     Exponent=  1.1587900000D+00 Coefficients=  8.5216100000D-01
 S 1 1.0
     Exponent=  3.2584000000D-01 Coefficients=  1.0000000000D+00
 S 1 1.0
     Exponent=  1.0274100000D-01 Coefficients=  1.0000000000D+00
 S 1 1.0
     Exponent=  3.6000000000D-02 Coefficients=  1.0000000000D+00
 P 1 1.0
     Exponent=  7.5000000000D-01 Coefficients=  1.0000000000D+00
 ****
 Centers:   2  3  4  5  6
 S 6 1.0
     Exponent=  4.5632400000D+03 Coefficients=  1.9666500000D-03
     Exponent=  6.8202400000D+02 Coefficients=  1.5230600000D-02
     Exponent=  1.5497300000D+02 Coefficients=  7.6126900000D-02
     Exponent=  4.4455300000D+01 Coefficients=  2.6080100000D-01
     Exponent=  1.3029000000D+01 Coefficients=  6.1646200000D-01
     Exponent=  1.8277300000D+00 Coefficients=  2.2100600000D-01
 S 3 1.0
     Exponent=  2.0964200000D+01 Coefficients=  1.1466000000D-01
     Exponent=  4.8033100000D+00 Coefficients=  9.1999900000D-01
     Exponent=  1.4593300000D+00 Coefficients= -3.0306800000D-03
 S 1 1.0
     Exponent=  4.8345600000D-01 Coefficients=  1.0000000000D+00
 S 1 1.0
     Exponent=  1.4558500000D-01 Coefficients=  1.0000000000D+00
 S 1 1.0
     Exponent=  4.3800000000D-02 Coefficients=  1.0000000000D+00
 P 3 1.0
     Exponent=  2.0964200000D+01 Coefficients=  4.0248700000D-02
     Exponent=  4.8033100000D+00 Coefficients=  2.3759400000D-01
     Exponent=  1.4593300000D+00 Coefficients=  8.1585400000D-01
 P 1 1.0
     Exponent=  4.8345600000D-01 Coefficients=  1.0000000000D+00
 P 1 1.0
     Exponent=  1.4558500000D-01 Coefficients=  1.0000000000D+00
 P 1 1.0
     Exponent=  4.3800000000D-02 Coefficients=  1.0000000000D+00
 D 1 1.0
     Exponent=  6.2600000000D-01 Coefficients=  1.0000000000D+00
 ****
 Centers:   1  7
 S 6 1.0
     Exponent=  6.2934800000D+03 Coefficients=  1.9697900000D-03
     Exponent=  9.4904400000D+02 Coefficients=  1.4961300000D-02
     Exponent=  2.1877600000D+02 Coefficients=  7.3500600000D-02
     Exponent=  6.3691600000D+01 Coefficients=  2.4893700000D-01
     Exponent=  1.8828200000D+01 Coefficients=  6.0246000000D-01
     Exponent=  2.7202300000D+00 Coefficients=  2.5620200000D-01
 S 3 1.0
     Exponent=  3.0633100000D+01 Coefficients=  1.1190600000D-01
     Exponent=  7.0261400000D+00 Coefficients=  9.2166600000D-01
     Exponent=  2.1120500000D+00 Coefficients= -2.5691900000D-03
 S 1 1.0
     Exponent=  6.8400900000D-01 Coefficients=  1.0000000000D+00
 S 1 1.0
     Exponent=  2.0087800000D-01 Coefficients=  1.0000000000D+00
 S 1 1.0
     Exponent=  6.3900000000D-02 Coefficients=  1.0000000000D+00
 S 1 1.0
     Exponent=  1.8257143000D-02 Coefficients=  1.0000000000D+00
 S 1 1.0
     Exponent=  5.2163270000D-03 Coefficients=  1.0000000000D+00
 S 1 1.0
     Exponent=  1.4903790000D-03 Coefficients=  1.0000000000D+00
 P 3 1.0
     Exponent=  3.0633100000D+01 Coefficients=  3.8311900000D-02
     Exponent=  7.0261400000D+00 Coefficients=  2.3740300000D-01
     Exponent=  2.1120500000D+00 Coefficients=  8.1759200000D-01
 P 1 1.0
     Exponent=  6.8400900000D-01 Coefficients=  1.0000000000D+00
 P 1 1.0
     Exponent=  2.0087800000D-01 Coefficients=  1.0000000000D+00
 P 1 1.0
     Exponent=  6.3900000000D-02 Coefficients=  1.0000000000D+00
 P 1 1.0
     Exponent=  1.8257143000D-02 Coefficients=  1.0000000000D+00
 P 1 1.0
     Exponent=  5.2163270000D-03 Coefficients=  1.0000000000D+00
 D 1 1.0
     Exponent=  9.1300000000D-01 Coefficients=  1.0000000000D+00
 ****
 Ernie: Thresh=  0.10000D-02 Tol=  0.10000D-05 Strict=F.
 AO basis set in the form of general basis input (Overlap normalization):
      1 0
 S   6 1.00       0.000000000000
      0.6293480000D+04  0.1969788147D-02
      0.9490440000D+03  0.1496128592D-01
      0.2187760000D+03  0.7350053084D-01
      0.6369160000D+02  0.2489367658D+00
      0.1882820000D+02  0.6024594331D+00
      0.2720230000D+01  0.2562017589D+00
 S   3 1.00       0.000000000000
      0.3063310000D+02  0.1119060795D+00
      0.7026140000D+01  0.9216666549D+00
      0.2112050000D+01 -0.2569191826D-02
 S   1 1.00       0.000000000000
      0.6840090000D+00  0.1000000000D+01
 S   1 1.00       0.000000000000
      0.2008780000D+00  0.1000000000D+01
 S   1 1.00       0.000000000000
      0.6390000000D-01  0.1000000000D+01
 S   1 1.00       0.000000000000
      0.1825714300D-01  0.1000000000D+01
 S   1 1.00       0.000000000000
      0.5216327000D-02  0.1000000000D+01
 S   1 1.00       0.000000000000
      0.1490379000D-02  0.1000000000D+01
 P   3 1.00       0.000000000000
      0.3063310000D+02  0.3831191864D-01
      0.7026140000D+01  0.2374031155D+00
      0.2112050000D+01  0.8175923978D+00
 P   1 1.00       0.000000000000
      0.6840090000D+00  0.1000000000D+01
 P   1 1.00       0.000000000000
      0.2008780000D+00  0.1000000000D+01
 P   1 1.00       0.000000000000
      0.6390000000D-01  0.1000000000D+01
 P   1 1.00       0.000000000000
      0.1825714300D-01  0.1000000000D+01
 P   1 1.00       0.000000000000
      0.5216327000D-02  0.1000000000D+01
 D   1 1.00       0.000000000000
      0.9130000000D+00  0.1000000000D+01
 ****
      2 0
 S   6 1.00       0.000000000000
      0.4563240000D+04  0.1966650249D-02
      0.6820240000D+03  0.1523060193D-01
      0.1549730000D+03  0.7612690966D-01
      0.4445530000D+02  0.2608010331D+00
      0.1302900000D+02  0.6164620782D+00
      0.1827730000D+01  0.2210060280D+00
 S   3 1.00       0.000000000000
      0.2096420000D+02  0.1146600807D+00
      0.4803310000D+01  0.9199996477D+00
      0.1459330000D+01 -0.3030682134D-02
 S   1 1.00       0.000000000000
      0.4834560000D+00  0.1000000000D+01
 S   1 1.00       0.000000000000
      0.1455850000D+00  0.1000000000D+01
 S   1 1.00       0.000000000000
      0.4380000000D-01  0.1000000000D+01
 P   3 1.00       0.000000000000
      0.2096420000D+02  0.4024869267D-01
      0.4803310000D+01  0.2375939567D+00
      0.1459330000D+01  0.8158538515D+00
 P   1 1.00       0.000000000000
      0.4834560000D+00  0.1000000000D+01
 P   1 1.00       0.000000000000
      0.1455850000D+00  0.1000000000D+01
 P   1 1.00       0.000000000000
      0.4380000000D-01  0.1000000000D+01
 D   1 1.00       0.000000000000
      0.6260000000D+00  0.1000000000D+01
 ****
      3 0
 S   6 1.00       0.000000000000
      0.4563240000D+04  0.1966650249D-02
      0.6820240000D+03  0.1523060193D-01
      0.1549730000D+03  0.7612690966D-01
      0.4445530000D+02  0.2608010331D+00
      0.1302900000D+02  0.6164620782D+00
      0.1827730000D+01  0.2210060280D+00
 S   3 1.00       0.000000000000
      0.2096420000D+02  0.1146600807D+00
      0.4803310000D+01  0.9199996477D+00
      0.1459330000D+01 -0.3030682134D-02
 S   1 1.00       0.000000000000
      0.4834560000D+00  0.1000000000D+01
 S   1 1.00       0.000000000000
      0.1455850000D+00  0.1000000000D+01
 S   1 1.00       0.000000000000
      0.4380000000D-01  0.1000000000D+01
 P   3 1.00       0.000000000000
      0.2096420000D+02  0.4024869267D-01
      0.4803310000D+01  0.2375939567D+00
      0.1459330000D+01  0.8158538515D+00
 P   1 1.00       0.000000000000
      0.4834560000D+00  0.1000000000D+01
 P   1 1.00       0.000000000000
      0.1455850000D+00  0.1000000000D+01
 P   1 1.00       0.000000000000
      0.4380000000D-01  0.1000000000D+01
 D   1 1.00       0.000000000000
      0.6260000000D+00  0.1000000000D+01
 ****
      4 0
 S   6 1.00       0.000000000000
      0.4563240000D+04  0.1966650249D-02
      0.6820240000D+03  0.1523060193D-01
      0.1549730000D+03  0.7612690966D-01
      0.4445530000D+02  0.2608010331D+00
      0.1302900000D+02  0.6164620782D+00
      0.1827730000D+01  0.2210060280D+00
 S   3 1.00       0.000000000000
      0.2096420000D+02  0.1146600807D+00
      0.4803310000D+01  0.9199996477D+00
      0.1459330000D+01 -0.3030682134D-02
 S   1 1.00       0.000000000000
      0.4834560000D+00  0.1000000000D+01
 S   1 1.00       0.000000000000
      0.1455850000D+00  0.1000000000D+01
 S   1 1.00       0.000000000000
      0.4380000000D-01  0.1000000000D+01
 P   3 1.00       0.000000000000
      0.2096420000D+02  0.4024869267D-01
      0.4803310000D+01  0.2375939567D+00
      0.1459330000D+01  0.8158538515D+00
 P   1 1.00       0.000000000000
      0.4834560000D+00  0.1000000000D+01
 P   1 1.00       0.000000000000
      0.1455850000D+00  0.1000000000D+01
 P   1 1.00       0.000000000000
      0.4380000000D-01  0.1000000000D+01
 D   1 1.00       0.000000000000
      0.6260000000D+00  0.1000000000D+01
 ****
      5 0
 S   6 1.00       0.000000000000
      0.4563240000D+04  0.1966650249D-02
      0.6820240000D+03  0.1523060193D-01
      0.1549730000D+03  0.7612690966D-01
      0.4445530000D+02  0.2608010331D+00
      0.1302900000D+02  0.6164620782D+00
      0.1827730000D+01  0.2210060280D+00
 S   3 1.00       0.000000000000
      0.2096420000D+02  0.1146600807D+00
      0.4803310000D+01  0.9199996477D+00
      0.1459330000D+01 -0.3030682134D-02
 S   1 1.00       0.000000000000
      0.4834560000D+00  0.1000000000D+01
 S   1 1.00       0.000000000000
      0.1455850000D+00  0.1000000000D+01
 S   1 1.00       0.000000000000
      0.4380000000D-01  0.1000000000D+01
 P   3 1.00       0.000000000000
      0.2096420000D+02  0.4024869267D-01
      0.4803310000D+01  0.2375939567D+00
      0.1459330000D+01  0.8158538515D+00
 P   1 1.00       0.000000000000
      0.4834560000D+00  0.1000000000D+01
 P   1 1.00       0.000000000000
      0.1455850000D+00  0.1000000000D+01
 P   1 1.00       0.000000000000
      0.4380000000D-01  0.1000000000D+01
 D   1 1.00       0.000000000000
      0.6260000000D+00  0.1000000000D+01
 ****
      6 0
 S   6 1.00       0.000000000000
      0.4563240000D+04  0.1966650249D-02
      0.6820240000D+03  0.1523060193D-01
      0.1549730000D+03  0.7612690966D-01
      0.4445530000D+02  0.2608010331D+00
      0.1302900000D+02  0.6164620782D+00
      0.1827730000D+01  0.2210060280D+00
 S   3 1.00       0.000000000000
      0.2096420000D+02  0.1146600807D+00
      0.4803310000D+01  0.9199996477D+00
      0.1459330000D+01 -0.3030682134D-02
 S   1 1.00       0.000000000000
      0.4834560000D+00  0.1000000000D+01
 S   1 1.00       0.000000000000
      0.1455850000D+00  0.1000000000D+01
 S   1 1.00       0.000000000000
      0.4380000000D-01  0.1000000000D+01
 P   3 1.00       0.000000000000
      0.2096420000D+02  0.4024869267D-01
      0.4803310000D+01  0.2375939567D+00
      0.1459330000D+01  0.8158538515D+00
 P   1 1.00       0.000000000000
      0.4834560000D+00  0.1000000000D+01
 P   1 1.00       0.000000000000
      0.1455850000D+00  0.1000000000D+01
 P   1 1.00       0.000000000000
      0.4380000000D-01  0.1000000000D+01
 D   1 1.00       0.000000000000
      0.6260000000D+00  0.1000000000D+01
 ****
      7 0
 S   6 1.00       0.000000000000
      0.6293480000D+04  0.1969788147D-02
      0.9490440000D+03  0.1496128592D-01
      0.2187760000D+03  0.7350053084D-01
      0.6369160000D+02  0.2489367658D+00
      0.1882820000D+02  0.6024594331D+00
      0.2720230000D+01  0.2562017589D+00
 S   3 1.00       0.000000000000
      0.3063310000D+02  0.1119060795D+00
      0.7026140000D+01  0.9216666549D+00
      0.2112050000D+01 -0.2569191826D-02
 S   1 1.00       0.000000000000
      0.6840090000D+00  0.1000000000D+01
 S   1 1.00       0.000000000000
      0.2008780000D+00  0.1000000000D+01
 S   1 1.00       0.000000000000
      0.6390000000D-01  0.1000000000D+01
 S   1 1.00       0.000000000000
      0.1825714300D-01  0.1000000000D+01
 S   1 1.00       0.000000000000
      0.5216327000D-02  0.1000000000D+01
 S   1 1.00       0.000000000000
      0.1490379000D-02  0.1000000000D+01
 P   3 1.00       0.000000000000
      0.3063310000D+02  0.3831191864D-01
      0.7026140000D+01  0.2374031155D+00
      0.2112050000D+01  0.8175923978D+00
 P   1 1.00       0.000000000000
      0.6840090000D+00  0.1000000000D+01
 P   1 1.00       0.000000000000
      0.2008780000D+00  0.1000000000D+01
 P   1 1.00       0.000000000000
      0.6390000000D-01  0.1000000000D+01
 P   1 1.00       0.000000000000
      0.1825714300D-01  0.1000000000D+01
 P   1 1.00       0.000000000000
      0.5216327000D-02  0.1000000000D+01
 D   1 1.00       0.000000000000
      0.9130000000D+00  0.1000000000D+01
 ****
      8 0
 S   3 1.00       0.000000000000
      0.3386500000D+02  0.2549381454D-01
      0.5094790000D+01  0.1903731086D+00
      0.1158790000D+01  0.8521614860D+00
 S   1 1.00       0.000000000000
      0.3258400000D+00  0.1000000000D+01
 S   1 1.00       0.000000000000
      0.1027410000D+00  0.1000000000D+01
 S   1 1.00       0.000000000000
      0.3600000000D-01  0.1000000000D+01
 P   1 1.00       0.000000000000
      0.7500000000D+00  0.1000000000D+01
 ****
      9 0
 S   3 1.00       0.000000000000
      0.3386500000D+02  0.2549381454D-01
      0.5094790000D+01  0.1903731086D+00
      0.1158790000D+01  0.8521614860D+00
 S   1 1.00       0.000000000000
      0.3258400000D+00  0.1000000000D+01
 S   1 1.00       0.000000000000
      0.1027410000D+00  0.1000000000D+01
 S   1 1.00       0.000000000000
      0.3600000000D-01  0.1000000000D+01
 P   1 1.00       0.000000000000
      0.7500000000D+00  0.1000000000D+01
 ****
     10 0
 S   3 1.00       0.000000000000
      0.3386500000D+02  0.2549381454D-01
      0.5094790000D+01  0.1903731086D+00
      0.1158790000D+01  0.8521614860D+00
 S   1 1.00       0.000000000000
      0.3258400000D+00  0.1000000000D+01
 S   1 1.00       0.000000000000
      0.1027410000D+00  0.1000000000D+01
 S   1 1.00       0.000000000000
      0.3600000000D-01  0.1000000000D+01
 P   1 1.00       0.000000000000
      0.7500000000D+00  0.1000000000D+01
 ****

 Integral buffers will be    131072 words long.
 Raffenetti 2 integral format.
 Two-electron integral symmetry is turned off.
   200 basis functions,   297 primitive gaussians,   200 cartesian basis functions
    24 alpha electrons       24 beta electrons
       nuclear repulsion energy       235.8597280759 Hartrees.
 IExCor= 4639 DFT=T Ex+Corr=wB97XD ExCW=0 ScaHFX=  1.000000
 ScaDFX=  1.000000  1.000000  1.000000  1.000000 ScalE2=  1.000000  1.000000
 IRadAn=      0 IRanWt=     -1 IRanGd=            0 ICorTp=0
  HFx wShort=  0.000000 wLong=  0.200000 cFull=  0.222036 cShort=  0.000000 cLong=  0.777964
  DFx wShort=  0.000000 wLong=  0.200000 cFull=  0.000000 cShort=  0.000000 cLong=  1.000000
 NAtoms=   10 NActive=   10 NUniq=   10 SFac= 7.50D-01 NAtFMM=   80 NAOKFM=F Big=F
 R6Disp: Dispersion energy =        -0.0030555855 Hartrees.
 Nuclear repulsion after empirical dispersion term =      235.8566724904 Hartrees.
 Leave Link  301 at Fri May 26 02:37:49 2023, MaxMem= 3276800000 cpu:       0.5
 (Enter /local/g09-source/g09/l302.exe)
 NPDir=0 NMtPBC=     1 NCelOv=     1 NCel=       1 NClECP=     1 NCelD=      1
         NCelK=      1 NCelE2=     1 NClLst=     1 CellRange=     0.0.
 One-electron integrals computed using PRISM.
 NBasis=   200 RedAO= T  NBF=   200
 NBsUse=   200 1.00D-06 NBFU=   200
 Precomputing XC quadrature grid using
 IXCGrd= 2 IRadAn=           0 IRanWt=          -1 IRanGd=           0 AccXCQ= 1.00D-10.
 NRdTot=     695 NPtTot=       89148 NUsed=       94156 NTot=       94188
 NSgBfM=   200   200   200   200   200 NAtAll=    10    10.
 Leave Link  302 at Fri May 26 02:37:49 2023, MaxMem= 3276800000 cpu:       2.4
 (Enter /local/g09-source/g09/l303.exe)
 DipDrv:  MaxL=1.
 Leave Link  303 at Fri May 26 02:37:49 2023, MaxMem= 3276800000 cpu:       0.5
 (Enter /local/g09-source/g09/l401.exe)
 Initial guess read from the checkpoint file:  an.chk
 B after Tr=     0.000339   -0.000063   -0.000169
         Rot=    1.000000    0.000000   -0.000065   -0.000005 Ang=   0.01 deg.
 Guess basis will be translated and rotated to current coordinates.
 Leave Link  401 at Fri May 26 02:37:49 2023, MaxMem= 3276800000 cpu:       1.9
 (Enter /local/g09-source/g09/l502.exe)
 Closed shell SCF:
 Requested convergence on RMS density matrix=1.00D-08 within 200 cycles.
 Requested convergence on MAX density matrix=1.00D-06.
 Requested convergence on             energy=1.00D-06.
 No special actions if energy rises.
 Using DIIS extrapolation, IDIIS=  1040.
 Two-electron integral symmetry not used.
        94053 words used for storage of precomputed grid.
 IEnd=      259395 IEndB=      259395 NGot=  3276800000 MDV=  3276621206
 LenX=  3276621206 LenY=  3276580765
 Fock matrices will be formed incrementally for  20 cycles.

 Cycle   1  Pass 1  IDiag  1:
 FoFJK:  IHMeth= 1 ICntrl=     0 DoSepK=T KAlg= 1 I1Cent= 0 FoldK=F
 FoFCou: FMM=F IPFlag=           0 FMFlag=      100000 FMFlg1=           0
         NFxFlg=           0 DoJE=T BraDBF=F KetDBF=F FulRan=T
         Omega=  0.000000  0.000000  1.000000  0.000000  0.000000 ICntrl=     500 IOpCl=  0
         NMat0=    1 NMatS0=    1 NMatT0=    0 NMatD0=    1 NMtDS0=    0 NMtDT0=    0
         I1Cent=           0 NGrid=           0.
 Symmetry not used in FoFCou.
 E= -301.757397037515    
 DIIS: error= 3.69D-04 at cycle   1 NSaved=   1.
 NSaved= 1 IEnMin= 1 EnMin= -301.757397037515     IErMin= 1 ErrMin= 3.69D-04
 ErrMax= 3.69D-04 EMaxC= 1.00D-01 BMatC= 5.71D-05 BMatP= 5.71D-05
 IDIUse=3 WtCom= 9.96D-01 WtEn= 3.69D-03
 Coeff-Com:  0.100D+01
 Coeff-En:   0.100D+01
 Coeff:      0.100D+01
 Gap=     0.143 Goal=   None    Shift=    0.000
 RMSDP=1.29D-03 MaxDP=6.49D-02              OVMax= 2.07D-03

 Cycle   2  Pass 1  IDiag  1:
 RMSU=  8.66D-04    CP:  1.01D+00
 FoFJK:  IHMeth= 1 ICntrl=     0 DoSepK=T KAlg= 1 I1Cent= 0 FoldK=F
 E= -301.757465171332     Delta-E=       -0.000068133817 Rises=F Damp=F
 DIIS: error= 2.33D-04 at cycle   2 NSaved=   2.
 NSaved= 2 IEnMin= 2 EnMin= -301.757465171332     IErMin= 2 ErrMin= 2.33D-04
 ErrMax= 2.33D-04 EMaxC= 1.00D-01 BMatC= 5.42D-06 BMatP= 5.71D-05
 IDIUse=3 WtCom= 9.98D-01 WtEn= 2.33D-03
 Coeff-Com:  0.566D-01 0.943D+00
 Coeff-En:   0.000D+00 0.100D+01
 Coeff:      0.565D-01 0.944D+00
 Gap=     0.143 Goal=   None    Shift=    0.000
 RMSDP=2.30D-04 MaxDP=2.07D-02 DE=-6.81D-05 OVMax= 1.42D-03

 Cycle   3  Pass 1  IDiag  1:
 RMSU=  1.06D-04    CP:  1.01D+00  1.11D+00
 FoFJK:  IHMeth= 1 ICntrl=     0 DoSepK=T KAlg= 1 I1Cent= 0 FoldK=F
 E= -301.757467634798     Delta-E=       -0.000002463466 Rises=F Damp=F
 DIIS: error= 2.01D-04 at cycle   3 NSaved=   3.
 NSaved= 3 IEnMin= 3 EnMin= -301.757467634798     IErMin= 3 ErrMin= 2.01D-04
 ErrMax= 2.01D-04 EMaxC= 1.00D-01 BMatC= 5.17D-06 BMatP= 5.42D-06
 IDIUse=3 WtCom= 9.98D-01 WtEn= 2.01D-03
 Coeff-Com: -0.557D-01 0.513D+00 0.543D+00
 Coeff-En:   0.000D+00 0.354D+00 0.646D+00
 Coeff:     -0.556D-01 0.513D+00 0.543D+00
 Gap=     0.143 Goal=   None    Shift=    0.000
 RMSDP=9.76D-05 MaxDP=5.84D-03 DE=-2.46D-06 OVMax= 6.79D-04

 Cycle   4  Pass 1  IDiag  1:
 RMSU=  2.27D-05    CP:  1.01D+00  1.16D+00  5.68D-01
 FoFJK:  IHMeth= 1 ICntrl=     0 DoSepK=T KAlg= 1 I1Cent= 0 FoldK=F
 E= -301.757472566207     Delta-E=       -0.000004931409 Rises=F Damp=F
 DIIS: error= 3.47D-05 at cycle   4 NSaved=   4.
 NSaved= 4 IEnMin= 4 EnMin= -301.757472566207     IErMin= 4 ErrMin= 3.47D-05
 ErrMax= 3.47D-05 EMaxC= 1.00D-01 BMatC= 2.06D-07 BMatP= 5.17D-06
 IDIUse=1 WtCom= 1.00D+00 WtEn= 0.00D+00
 Coeff-Com: -0.208D-01 0.913D-01 0.188D+00 0.742D+00
 Coeff:     -0.208D-01 0.913D-01 0.188D+00 0.742D+00
 Gap=     0.143 Goal=   None    Shift=    0.000
 RMSDP=1.52D-05 MaxDP=7.37D-04 DE=-4.93D-06 OVMax= 1.81D-04

 Cycle   5  Pass 1  IDiag  1:
 RMSU=  7.44D-06    CP:  1.01D+00  1.16D+00  5.70D-01  1.16D+00
 FoFJK:  IHMeth= 1 ICntrl=     0 DoSepK=T KAlg= 1 I1Cent= 0 FoldK=F
 E= -301.757472758812     Delta-E=       -0.000000192604 Rises=F Damp=F
 DIIS: error= 1.76D-05 at cycle   5 NSaved=   5.
 NSaved= 5 IEnMin= 5 EnMin= -301.757472758812     IErMin= 5 ErrMin= 1.76D-05
 ErrMax= 1.76D-05 EMaxC= 1.00D-01 BMatC= 9.28D-08 BMatP= 2.06D-07
 IDIUse=1 WtCom= 1.00D+00 WtEn= 0.00D+00
 Coeff-Com: -0.127D-02-0.558D-01 0.275D-02 0.450D+00 0.604D+00
 Coeff:     -0.127D-02-0.558D-01 0.275D-02 0.450D+00 0.604D+00
 Gap=     0.143 Goal=   None    Shift=    0.000
 RMSDP=1.18D-05 MaxDP=7.54D-04 DE=-1.93D-07 OVMax= 1.04D-04

 Cycle   6  Pass 1  IDiag  1:
 RMSU=  3.29D-06    CP:  1.01D+00  1.17D+00  5.30D-01  1.31D+00  1.24D+00
 FoFJK:  IHMeth= 1 ICntrl=     0 DoSepK=T KAlg= 1 I1Cent= 0 FoldK=F
 E= -301.757472858325     Delta-E=       -0.000000099513 Rises=F Damp=F
 DIIS: error= 6.38D-06 at cycle   6 NSaved=   6.
 NSaved= 6 IEnMin= 6 EnMin= -301.757472858325     IErMin= 6 ErrMin= 6.38D-06
 ErrMax= 6.38D-06 EMaxC= 1.00D-01 BMatC= 4.14D-09 BMatP= 9.28D-08
 IDIUse=1 WtCom= 1.00D+00 WtEn= 0.00D+00
 Coeff-Com:  0.245D-02-0.311D-01-0.217D-01 0.503D-01 0.184D+00 0.816D+00
 Coeff:      0.245D-02-0.311D-01-0.217D-01 0.503D-01 0.184D+00 0.816D+00
 Gap=     0.143 Goal=   None    Shift=    0.000
 RMSDP=6.62D-06 MaxDP=5.20D-04 DE=-9.95D-08 OVMax= 6.63D-05

 Cycle   7  Pass 1  IDiag  1:
 RMSU=  1.02D-06    CP:  1.01D+00  1.17D+00  5.03D-01  1.36D+00  1.41D+00
                    CP:  1.34D+00
 FoFJK:  IHMeth= 1 ICntrl=     0 DoSepK=T KAlg= 1 I1Cent= 0 FoldK=F
 E= -301.757472866998     Delta-E=       -0.000000008673 Rises=F Damp=F
 DIIS: error= 2.76D-06 at cycle   7 NSaved=   7.
 NSaved= 7 IEnMin= 7 EnMin= -301.757472866998     IErMin= 7 ErrMin= 2.76D-06
 ErrMax= 2.76D-06 EMaxC= 1.00D-01 BMatC= 1.12D-09 BMatP= 4.14D-09
 IDIUse=1 WtCom= 1.00D+00 WtEn= 0.00D+00
 Coeff-Com:  0.122D-02-0.490D-02-0.969D-02-0.513D-01-0.154D-01 0.368D+00
 Coeff-Com:  0.712D+00
 Coeff:      0.122D-02-0.490D-02-0.969D-02-0.513D-01-0.154D-01 0.368D+00
 Coeff:      0.712D+00
 Gap=     0.143 Goal=   None    Shift=    0.000
 RMSDP=4.16D-06 MaxDP=3.48D-04 DE=-8.67D-09 OVMax= 2.14D-05

 Cycle   8  Pass 1  IDiag  1:
 RMSU=  6.33D-07    CP:  1.01D+00  1.17D+00  4.83D-01  1.38D+00  1.53D+00
                    CP:  1.59D+00  1.25D+00
 FoFJK:  IHMeth= 1 ICntrl=     0 DoSepK=T KAlg= 1 I1Cent= 0 FoldK=F
 E= -301.757472869011     Delta-E=       -0.000000002012 Rises=F Damp=F
 DIIS: error= 1.09D-06 at cycle   8 NSaved=   8.
 NSaved= 8 IEnMin= 8 EnMin= -301.757472869011     IErMin= 8 ErrMin= 1.09D-06
 ErrMax= 1.09D-06 EMaxC= 1.00D-01 BMatC= 1.25D-10 BMatP= 1.12D-09
 IDIUse=1 WtCom= 1.00D+00 WtEn= 0.00D+00
 Coeff-Com: -0.165D-04 0.386D-02 0.258D-03-0.267D-01-0.340D-01-0.162D-01
 Coeff-Com:  0.210D+00 0.862D+00
 Coeff:     -0.165D-04 0.386D-02 0.258D-03-0.267D-01-0.340D-01-0.162D-01
 Coeff:      0.210D+00 0.862D+00
 Gap=     0.143 Goal=   None    Shift=    0.000
 RMSDP=2.29D-06 MaxDP=2.09D-04 DE=-2.01D-09 OVMax= 1.36D-05

 Cycle   9  Pass 1  IDiag  1:
 RMSU=  2.14D-07    CP:  1.01D+00  1.17D+00  4.72D-01  1.38D+00  1.58D+00
                    CP:  1.69D+00  1.52D+00  1.25D+00
 FoFJK:  IHMeth= 1 ICntrl=     0 DoSepK=T KAlg= 1 I1Cent= 0 FoldK=F
 E= -301.757472869340     Delta-E=       -0.000000000329 Rises=F Damp=F
 DIIS: error= 5.38D-07 at cycle   9 NSaved=   9.
 NSaved= 9 IEnMin= 9 EnMin= -301.757472869340     IErMin= 9 ErrMin= 5.38D-07
 ErrMax= 5.38D-07 EMaxC= 1.00D-01 BMatC= 3.80D-11 BMatP= 1.25D-10
 IDIUse=1 WtCom= 1.00D+00 WtEn= 0.00D+00
 Coeff-Com: -0.236D-03 0.271D-02 0.194D-02-0.247D-02-0.113D-01-0.759D-01
 Coeff-Com: -0.431D-01 0.422D+00 0.706D+00
 Coeff:     -0.236D-03 0.271D-02 0.194D-02-0.247D-02-0.113D-01-0.759D-01
 Coeff:     -0.431D-01 0.422D+00 0.706D+00
 Gap=     0.143 Goal=   None    Shift=    0.000
 RMSDP=1.02D-06 MaxDP=9.34D-05 DE=-3.29D-10 OVMax= 6.91D-06

 Cycle  10  Pass 1  IDiag  1:
 RMSU=  8.97D-08    CP:  1.01D+00  1.17D+00  4.67D-01  1.38D+00  1.59D+00
                    CP:  1.73D+00  1.59D+00  1.48D+00  1.09D+00
 FoFJK:  IHMeth= 1 ICntrl=     0 DoSepK=T KAlg= 1 I1Cent= 0 FoldK=F
 E= -301.757472869420     Delta-E=       -0.000000000080 Rises=F Damp=F
 DIIS: error= 1.07D-07 at cycle  10 NSaved=  10.
 NSaved=10 IEnMin=10 EnMin= -301.757472869420     IErMin=10 ErrMin= 1.07D-07
 ErrMax= 1.07D-07 EMaxC= 1.00D-01 BMatC= 3.43D-12 BMatP= 3.80D-11
 IDIUse=1 WtCom= 1.00D+00 WtEn= 0.00D+00
 Coeff-Com: -0.521D-04 0.214D-04 0.436D-03 0.313D-02 0.284D-02-0.136D-01
 Coeff-Com: -0.462D-01-0.473D-01 0.179D+00 0.922D+00
 Coeff:     -0.521D-04 0.214D-04 0.436D-03 0.313D-02 0.284D-02-0.136D-01
 Coeff:     -0.462D-01-0.473D-01 0.179D+00 0.922D+00
 Gap=     0.143 Goal=   None    Shift=    0.000
 RMSDP=3.49D-07 MaxDP=3.38D-05 DE=-8.03D-11 OVMax= 2.33D-06

 Cycle  11  Pass 1  IDiag  1:
 RMSU=  3.66D-08    CP:  1.01D+00  1.17D+00  4.65D-01  1.38D+00  1.59D+00
                    CP:  1.74D+00  1.62D+00  1.59D+00  1.25D+00  1.46D+00
 FoFJK:  IHMeth= 1 ICntrl=     0 DoSepK=T KAlg= 1 I1Cent= 0 FoldK=F
 E= -301.757472869429     Delta-E=       -0.000000000009 Rises=F Damp=F
 DIIS: error= 4.33D-08 at cycle  11 NSaved=  11.
 NSaved=11 IEnMin=11 EnMin= -301.757472869429     IErMin=11 ErrMin= 4.33D-08
 ErrMax= 4.33D-08 EMaxC= 1.00D-01 BMatC= 3.00D-13 BMatP= 3.43D-12
 IDIUse=1 WtCom= 1.00D+00 WtEn= 0.00D+00
 Coeff-Com:  0.189D-04-0.383D-03-0.136D-03 0.119D-02 0.249D-02 0.736D-02
 Coeff-Com: -0.791D-02-0.715D-01-0.259D-01 0.229D+00 0.866D+00
 Coeff:      0.189D-04-0.383D-03-0.136D-03 0.119D-02 0.249D-02 0.736D-02
 Coeff:     -0.791D-02-0.715D-01-0.259D-01 0.229D+00 0.866D+00
 Gap=     0.143 Goal=   None    Shift=    0.000
 RMSDP=5.33D-08 MaxDP=2.46D-06 DE=-8.87D-12 OVMax= 7.27D-07

 Cycle  12  Pass 1  IDiag  1:
 RMSU=  1.09D-08    CP:  1.01D+00  1.17D+00  4.65D-01  1.38D+00  1.59D+00
                    CP:  1.74D+00  1.61D+00  1.59D+00  1.31D+00  1.61D+00
                    CP:  1.08D+00
 FoFJK:  IHMeth= 1 ICntrl=     0 DoSepK=T KAlg= 1 I1Cent= 0 FoldK=F
 E= -301.757472869423     Delta-E=        0.000000000006 Rises=F Damp=F
 DIIS: error= 1.32D-08 at cycle  12 NSaved=  12.
 NSaved=12 IEnMin=11 EnMin= -301.757472869429     IErMin=12 ErrMin= 1.32D-08
 ErrMax= 1.32D-08 EMaxC= 1.00D-01 BMatC= 4.16D-14 BMatP= 3.00D-13
 IDIUse=1 WtCom= 1.00D+00 WtEn= 0.00D+00
 Coeff-Com:  0.927D-05-0.106D-03-0.744D-04 0.622D-04 0.424D-03 0.336D-02
 Coeff-Com:  0.121D-02-0.167D-01-0.205D-01-0.304D-01 0.246D+00 0.817D+00
 Coeff:      0.927D-05-0.106D-03-0.744D-04 0.622D-04 0.424D-03 0.336D-02
 Coeff:      0.121D-02-0.167D-01-0.205D-01-0.304D-01 0.246D+00 0.817D+00
 Gap=     0.143 Goal=   None    Shift=    0.000
 RMSDP=2.10D-08 MaxDP=1.59D-06 DE= 6.14D-12 OVMax= 1.70D-07

 Cycle  13  Pass 1  IDiag  1:
 RMSU=  4.69D-09    CP:  1.01D+00  1.17D+00  4.65D-01  1.38D+00  1.59D+00
                    CP:  1.74D+00  1.61D+00  1.60D+00  1.31D+00  1.65D+00
                    CP:  1.17D+00  1.17D+00
 FoFJK:  IHMeth= 1 ICntrl=     0 DoSepK=T KAlg= 1 I1Cent= 0 FoldK=F
 E= -301.757472869426     Delta-E=       -0.000000000003 Rises=F Damp=F
 DIIS: error= 6.51D-09 at cycle  13 NSaved=  13.
 NSaved=13 IEnMin=11 EnMin= -301.757472869429     IErMin=13 ErrMin= 6.51D-09
 ErrMax= 6.51D-09 EMaxC= 1.00D-01 BMatC= 6.74D-15 BMatP= 4.16D-14
 IDIUse=1 WtCom= 1.00D+00 WtEn= 0.00D+00
 Coeff-Com:  0.453D-06 0.203D-04-0.516D-05-0.145D-03-0.216D-03 0.748D-04
 Coeff-Com:  0.143D-02 0.556D-02-0.126D-02-0.461D-01-0.543D-01 0.282D+00
 Coeff-Com:  0.813D+00
 Coeff:      0.453D-06 0.203D-04-0.516D-05-0.145D-03-0.216D-03 0.748D-04
 Coeff:      0.143D-02 0.556D-02-0.126D-02-0.461D-01-0.543D-01 0.282D+00
 Coeff:      0.813D+00
 Gap=     0.143 Goal=   None    Shift=    0.000
 RMSDP=1.31D-08 MaxDP=1.01D-06 DE=-3.18D-12 OVMax= 8.26D-08

 Cycle  14  Pass 1  IDiag  1:
 RMSU=  1.18D-09    CP:  1.01D+00  1.17D+00  4.65D-01  1.38D+00  1.59D+00
                    CP:  1.74D+00  1.61D+00  1.59D+00  1.31D+00  1.66D+00
                    CP:  1.20D+00  1.32D+00  1.12D+00
 FoFJK:  IHMeth= 1 ICntrl=     0 DoSepK=T KAlg= 1 I1Cent= 0 FoldK=F
 E= -301.757472869425     Delta-E=        0.000000000001 Rises=F Damp=F
 DIIS: error= 1.47D-09 at cycle  14 NSaved=  14.
 NSaved=14 IEnMin=11 EnMin= -301.757472869429     IErMin=14 ErrMin= 1.47D-09
 ErrMax= 1.47D-09 EMaxC= 1.00D-01 BMatC= 3.94D-16 BMatP= 6.74D-15
 IDIUse=1 WtCom= 1.00D+00 WtEn= 0.00D+00
 Coeff-Com: -0.938D-06 0.139D-04 0.927D-05-0.308D-04-0.727D-04-0.335D-03
 Coeff-Com: -0.892D-05 0.245D-02 0.214D-02-0.234D-02-0.341D-01-0.628D-01
 Coeff-Com:  0.867D-01 0.101D+01
 Coeff:     -0.938D-06 0.139D-04 0.927D-05-0.308D-04-0.727D-04-0.335D-03
 Coeff:     -0.892D-05 0.245D-02 0.214D-02-0.234D-02-0.341D-01-0.628D-01
 Coeff:      0.867D-01 0.101D+01
 Gap=     0.143 Goal=   None    Shift=    0.000
 RMSDP=4.18D-09 MaxDP=3.01D-07 DE= 1.14D-12 OVMax= 2.81D-08

 SCF Done:  E(RwB97XD) =  -301.757472869     A.U. after   14 cycles
             Convg  =    0.4184D-08             -V/T =  2.0066
 KE= 2.997922314076D+02 PE=-1.182819932723D+03 EE= 3.454135559559D+02
 Leave Link  502 at Fri May 26 02:38:35 2023, MaxMem= 3276800000 cpu:     451.3
 (Enter /local/g09-source/g09/l601.exe)
 Copying SCF densities to generalized density rwf, IOpCl= 0 IROHF=0.

 **********************************************************************

            Population analysis using the SCF density.

 **********************************************************************

 Alpha  occ. eigenvalues --  -14.26229 -14.26034 -10.16540 -10.15485 -10.15436
 Alpha  occ. eigenvalues --  -10.13324 -10.12607  -0.86580  -0.83232  -0.70217
 Alpha  occ. eigenvalues --   -0.65034  -0.52123  -0.45999  -0.43339  -0.35110
 Alpha  occ. eigenvalues --   -0.32524  -0.31567  -0.29191  -0.27637  -0.26236
 Alpha  occ. eigenvalues --   -0.24685  -0.18206  -0.16355  -0.10779
 Alpha virt. eigenvalues --    0.03562   0.03963   0.06596   0.07052   0.07127
 Alpha virt. eigenvalues --    0.07157   0.07411   0.07472   0.08416   0.08655
 Alpha virt. eigenvalues --    0.14403   0.14811   0.15712   0.16018   0.16223
 Alpha virt. eigenvalues --    0.16779   0.16851   0.17428   0.17525   0.18406
 Alpha virt. eigenvalues --    0.20638   0.22118   0.25285   0.25554   0.26010
 Alpha virt. eigenvalues --    0.26187   0.27193   0.27635   0.28623   0.29210
 Alpha virt. eigenvalues --    0.30095   0.30477   0.31418   0.31821   0.32089
 Alpha virt. eigenvalues --    0.32927   0.33167   0.34021   0.34205   0.34895
 Alpha virt. eigenvalues --    0.36901   0.37983   0.38302   0.40284   0.42221
 Alpha virt. eigenvalues --    0.42338   0.43756   0.44094   0.44882   0.45230
 Alpha virt. eigenvalues --    0.46505   0.48231   0.49498   0.49765   0.51690
 Alpha virt. eigenvalues --    0.53519   0.54506   0.56654   0.59243   0.63150
 Alpha virt. eigenvalues --    0.67631   0.70135   0.75244   0.75835   0.78753
 Alpha virt. eigenvalues --    0.81400   0.82064   0.84057   0.85755   0.86520
 Alpha virt. eigenvalues --    0.86992   0.89214   0.89804   0.92805   0.94413
 Alpha virt. eigenvalues --    0.97608   1.00495   1.01576   1.03272   1.04884
 Alpha virt. eigenvalues --    1.06044   1.09221   1.10820   1.12594   1.13529
 Alpha virt. eigenvalues --    1.15858   1.17617   1.20303   1.20809   1.27769
 Alpha virt. eigenvalues --    1.28912   1.32211   1.34185   1.36894   1.39348
 Alpha virt. eigenvalues --    1.44836   1.49681   1.52415   1.53545   1.55896
 Alpha virt. eigenvalues --    1.59880   1.69326   1.75168   1.76671   1.78234
 Alpha virt. eigenvalues --    1.81931   1.85652   1.88490   1.90220   1.93868
 Alpha virt. eigenvalues --    1.98490   2.02124   2.04476   2.10288   2.14364
 Alpha virt. eigenvalues --    2.16401   2.18001   2.22448   2.29196   2.32736
 Alpha virt. eigenvalues --    2.34099   2.35354   2.41391   2.43142   2.53325
 Alpha virt. eigenvalues --    2.56197   2.61306   2.68787   2.72258   2.80808
 Alpha virt. eigenvalues --    2.86584   2.91228   2.93713   2.98366   2.98901
 Alpha virt. eigenvalues --    3.01323   3.03592   3.06081   3.11060   3.14166
 Alpha virt. eigenvalues --    3.15927   3.18993   3.19898   3.24181   3.27177
 Alpha virt. eigenvalues --    3.29649   3.31676   3.39143   3.44334   3.48521
 Alpha virt. eigenvalues --    3.61897   3.63737   3.65191   3.73778   3.79222
 Alpha virt. eigenvalues --    3.82692   3.87415   4.19704   4.26296   4.28101
 Alpha virt. eigenvalues --    4.31453   4.44488   4.56794   4.62036   4.66417
 Alpha virt. eigenvalues --    4.85363   5.29043   5.38173   5.94677  26.85792
 Alpha virt. eigenvalues --   26.94123  26.96718  26.99936  27.15560  39.88172
 Alpha virt. eigenvalues --   40.05207
     Molecular Orbital Coefficients:
                           1         2         3         4         5
                           O         O         O         O         O
     Eigenvalues --  -.14262291459115E+02 -.14260335194691E+02 -.10165404643175E+02 -.10154852329465E+02 -.10154362755656E+02
   1 1   N  1S       -.14995988009534E-03 0.55837438689362E+00 -.17217973060700E-05 -.38983214417854E-04 -.71232980243526E-04
   2        2S       -.12605858350731E-03 0.46253570378927E+00 0.11547111053194E-04 -.64266832979302E-04 -.11764122843025E-03
   3        3S       -.23595810220644E-04 0.18656528843647E-01 0.34017302027847E-04 -.15242759327096E-03 0.84357671941912E-04
   4        4S       0.29806263857645E-03 0.68898118002013E-02 -.33565180332875E-03 0.89531971879812E-03 0.29023034424808E-03
   5        5S       0.26747526332647E-03 -.25933800355642E-02 -.13715574427330E-02 -.85621953267839E-02 -.11292093912435E-01
   6        6S       0.11948270829585E-03 -.12507173862352E-02 0.67441812538647E-03 -.14957762302478E-02 -.90999835530657E-03
   7        7S       0.93631356151136E-04 0.99825694620150E-03 -.53624295660064E-03 0.19195953271993E-02 0.94993066152087E-03
   8        8S       -.25442040395026E-04 -.21111773048914E-05 -.79307567553152E-05 0.41600376611047E-04 -.91523029513853E-04
   9        9PX      -.50747621211435E-05 -.11688268127770E-03 0.14295545381225E-04 -.19882258383317E-04 0.84292304273769E-04
  10        9PY      0.30466730711689E-05 0.20246812233182E-02 -.28691601249810E-05 -.33211439968081E-04 0.28403664432682E-04
  11        9PZ      -.10530829039714E-05 0.88193641470637E-04 -.87755269824510E-07 0.83899291679959E-05 -.89014653997187E-05
  12       10PX      0.16767135785855E-04 0.29273625878373E-04 -.78016506382799E-04 -.40614650620619E-03 0.36552661921737E-03
  13       10PY      -.19488897222933E-04 -.15033676320131E-02 0.42634147004434E-04 0.42425543686640E-03 0.53457293319133E-03
  14       10PZ      0.33935035342193E-05 -.44334067707573E-04 -.36552000254478E-06 -.10081845042623E-04 -.18632883198044E-05
  15       11PX      -.45122960822566E-04 -.49642579881825E-03 -.19178954086546E-03 0.75513678531665E-04 0.17829840062970E-03
  16       11PY      0.27924691788255E-04 0.18086096857770E-02 -.40802171204385E-03 0.16417128570475E-03 0.12805349795162E-03
  17       11PZ      -.58070035631109E-04 0.64703956025901E-04 -.59790418935446E-04 0.15078230898732E-03 -.55669773577395E-04
  18       12PX      0.38747530186686E-03 0.39847524234485E-03 0.23929068970277E-03 0.16506019846119E-02 -.24820451551647E-02
  19       12PY      0.31361303071769E-03 -.29788714034828E-03 -.15312222703302E-03 -.24624986305095E-02 -.40346426107479E-02
  20       12PZ      -.18962951404695E-04 -.25267843076825E-04 -.18087877918897E-03 -.41944480508181E-03 0.40581423427822E-03
  21       13PX      -.90976504236869E-04 0.24792069915904E-03 0.34974767467419E-03 0.50447970653264E-03 0.32776048560186E-04
  22       13PY      0.15262662266375E-04 -.14984587461110E-03 0.34212390324230E-03 0.22915735270852E-03 0.26949270359603E-03
  23       13PZ      -.10270555316530E-04 -.49881923633435E-05 -.54404516676592E-04 -.37598532117561E-04 0.10511831223919E-03
  24       14PX      -.48681309108231E-04 -.25569601744731E-03 0.12564494879419E-03 -.58448559236477E-03 -.14268543216489E-03
  25       14PY      -.24814986270283E-04 -.17847756055048E-05 0.25510316460672E-04 -.11542757060916E-03 -.78938718571527E-04
  26       14PZ      0.69460347060403E-05 0.13848639085685E-05 -.11782070572903E-04 0.19748422338926E-04 -.54282286375913E-04
  27       15XX      -.14185486178743E-04 -.62884947986814E-02 0.87225421478035E-04 0.21311326921946E-03 0.14654447993131E-03
  28       15YY      0.40557470027749E-05 -.61870018644752E-02 0.70485717408606E-05 0.11090049954116E-03 0.15825672555168E-03
  29       15ZZ      -.33280627590693E-05 -.60921428485045E-02 0.52504647265289E-04 -.19651596367697E-03 -.18687991517953E-03
  30       15XY      0.31342127662885E-04 -.46803781457347E-04 -.13935163564539E-04 -.28174757078272E-03 0.24570883508516E-03
  31       15XZ      0.49779014103211E-06 0.11073408116996E-04 -.31435518960019E-05 -.24617396813668E-04 -.24249004767329E-04
  32       15YZ      -.95018689416575E-05 0.66953297299386E-05 -.19479232784847E-04 0.23308401100277E-04 -.61297645911710E-05
  33 2   C  1S       -.11169209189546E-05 0.27838988917050E-05 0.12209680893349E-01 0.56402114203202E+00 0.85415918390058E-02
  34        2S       0.92469412173593E-05 -.14329467929505E-04 0.99232676259516E-02 0.45933786917440E+00 0.69510242481849E-02
  35        3S       -.51806897442576E-05 -.13965061724324E-03 0.10032527134342E-02 0.19559227175209E-01 0.24214151943709E-03
  36        4S       -.11047184006758E-01 -.54291531211008E-03 -.11247221795212E-01 0.17881272048422E-01 0.21900490718590E-02
  37        5S       -.17666834878529E-01 0.35473458159367E-02 -.10136781325788E+00 -.53306507341445E-01 0.30921853797101E-01
  38        6PX      -.74509999380647E-04 -.14945458292981E-03 0.66175080328501E-04 -.44569895476403E-03 -.12621020692638E-04
  39        6PY      -.28164302022161E-04 0.88681258048655E-04 0.23964061954835E-04 -.27483560453784E-03 -.38356837750788E-04
  40        6PZ      -.72283639910500E-05 0.25199663664719E-05 0.18422322976094E-05 -.15173307654486E-03 -.47168120699651E-06
  41        7PX      0.77016516122142E-03 0.69397405963796E-03 -.14026741656738E-02 0.77532369881935E-03 -.97374978631532E-05
  42        7PY      0.30497858291300E-03 -.40138173682553E-03 -.59367591221814E-03 0.25353475063102E-03 0.20169500473498E-03
  43        7PZ      0.48812253740979E-04 -.97873119666375E-05 -.78420370732262E-04 0.17665333809879E-03 0.42569427291520E-05
  44        8PX      0.52030902306914E-02 -.34794396220832E-02 0.83152632676079E-02 -.41292596196392E-02 -.32523227343434E-02
  45        8PY      0.21644772832713E-02 0.61178598697766E-03 0.33437140044735E-02 -.90089057635837E-03 -.22386515632721E-02
  46        8PZ      0.51078567174429E-03 0.80950534851113E-04 0.49939833602226E-03 -.47561774387587E-03 -.50759117198820E-04
  47        9PX      0.18443495017542E-02 -.22039037837188E-03 0.53333079233926E-01 0.18378818524455E-01 0.23432729997815E-01
  48        9PY      -.13118925725524E-02 -.14124867685625E-02 0.14884035967065E-01 0.14271066311071E-02 0.17094693245144E-01
  49        9PZ      0.36133222492970E-03 -.16852767848389E-03 0.17233696408515E-02 0.11374619983548E-02 -.14595409553329E-02
  50       10XX      -.49571190637513E-03 0.30024247526003E-03 0.62375488283958E-03 -.83709328157325E-02 -.22606178216522E-03
  51       10YY      0.60665317875951E-04 -.76395179381399E-04 -.12979214982498E-03 -.80803845898335E-02 -.99291979689862E-04
  52       10ZZ      0.10019259294978E-03 -.16074938658282E-04 -.12448040324518E-03 -.77263151137821E-02 -.15080646006430E-03
  53       10XY      -.28056232236592E-03 -.46214489136005E-03 0.36990691794586E-03 -.20160471450856E-03 0.77652519805417E-04
  54       10XZ      -.89560436954153E-04 -.25813160861347E-04 0.31721781825647E-04 -.20097041736704E-04 0.26933904274837E-04
  55       10YZ      -.37978126610809E-04 0.10120516114569E-04 0.94316933450848E-05 -.24583573867795E-05 0.18052798344452E-05
  56 3   C  1S       -.71355043380285E-06 0.53506478608624E-05 0.10188148347899E-03 0.68177563263488E-02 0.10999081446007E-03
  57        2S       0.25802387438626E-05 -.16972339402570E-04 0.66115150705008E-04 0.55358228546392E-02 0.48991204387011E-04
  58        3S       -.15169394382365E-04 0.18419309895739E-03 0.29385371794274E-04 0.65762546296808E-03 -.35839728787404E-04
  59        4S       0.10967767438444E-02 -.45976636287972E-03 0.22398234202883E-02 -.35190488243545E-02 0.29456392677374E-02
  60        5S       0.10746406973565E-01 -.34070138680710E-02 0.38023648358495E-01 0.19288797367901E-01 -.51371560966309E-01
  61        6PX      0.31760654271269E-05 0.11830182155005E-04 0.19971274386373E-04 -.62659363680156E-04 0.17817079488168E-04
  62        6PY      -.10362378611047E-04 0.21542886664305E-04 -.10044776484247E-04 -.51079462341580E-05 -.22988641391840E-04
  63        6PZ      0.54338859316123E-06 -.74375614937735E-05 0.12141516081308E-05 -.17495208809349E-05 -.41628617850846E-06
  64        7PX      -.17813540733452E-04 0.40248918770524E-04 -.22713543846608E-03 0.11281398405163E-03 -.71742226488389E-04
  65        7PY      0.72536704277701E-04 -.29112868977473E-03 -.98691335432524E-04 -.99836127237147E-03 0.99594414701968E-04
  66        7PZ      -.28491683510188E-05 0.35822182319200E-04 -.81249549455058E-05 0.53363556820249E-04 0.11853093049644E-05
  67        8PX      0.68282124710075E-03 0.84616463038400E-03 0.13019385314889E-02 -.14008446507858E-03 0.67294517313538E-03
  68        8PY      -.27980836096030E-04 -.54715686360685E-03 0.37485219909378E-03 0.15282986545742E-02 -.95976905779828E-03
  69        8PZ      -.24815264925815E-04 -.98571583444523E-04 0.31216029566870E-04 -.40766340097802E-04 0.87663955545963E-04
  70        9PX      0.13483161622854E-02 -.14855146597693E-02 0.44167411917826E-02 0.71300766256177E-03 -.63197534565865E-02
  71        9PY      -.17796939700297E-02 -.63600705844890E-03 -.45427312454392E-02 -.25250963070096E-02 0.10582110505021E-01
  72        9PZ      0.19291931416413E-03 -.19470435804090E-04 0.66031057702046E-03 0.21779949374008E-03 -.48115919843707E-03
  73       10XX      0.38804463226105E-04 -.58052894320828E-04 -.14698610172298E-03 0.42839006239877E-04 -.18455304625839E-03
  74       10YY      -.32175900285822E-04 0.40870867087246E-04 0.27085162789437E-04 0.58525450075520E-03 -.18674030710844E-03
  75       10ZZ      0.24385854528119E-05 0.55053407913803E-04 0.22721888598967E-04 -.12568444383514E-03 -.42684044446659E-04
  76       10XY      -.34786016756523E-04 0.79166862242673E-04 0.64768737626134E-04 0.13101698097573E-03 0.94993630547520E-04
  77       10XZ      -.13206777831559E-07 0.21201340960337E-04 -.23840378849133E-04 0.16304822475119E-04 0.11143216504891E-04
  78       10YZ      0.97367337032044E-05 -.13476066422109E-04 0.13737988862699E-04 -.48391699839720E-04 -.18389877166136E-04
  79 4   C  1S       -.98061232299572E-06 0.67798804973150E-05 -.22203739457560E-04 -.42055099819274E-05 0.30320735720923E-02
  80        2S       0.44464113213247E-05 -.23167584867066E-04 0.40048023264358E-05 -.31624125314477E-04 0.24608901054226E-02
  81        3S       0.71892969443306E-04 0.57272631981169E-04 0.30927768541017E-03 -.17230739827841E-03 0.14870288603283E-03
  82        4S       -.14879845566348E-02 0.35267350006256E-03 -.28456475560148E-02 0.19796312160230E-02 -.22987074558316E-02
  83        5S       -.63712962882054E-02 0.42064455461732E-02 -.36906632784105E-01 -.24114543305933E-01 0.27320220239704E-01
  84        6PX      -.14468189396332E-04 -.51223669696715E-04 0.12706591948890E-04 -.23272006934792E-04 -.14837778833068E-05
  85        6PY      -.94587982837049E-05 -.75536681001924E-05 -.12884015432861E-04 -.13353543045998E-04 0.41224762015323E-04
  86        6PZ      -.28812749968065E-05 0.51322164174192E-05 -.56815321280113E-05 0.25399103925639E-05 0.73281171838922E-06
  87        7PX      0.86573965584470E-04 0.18439020475166E-03 -.18061068786966E-03 0.17910206687016E-03 0.22460800858853E-03
  88        7PY      0.41008689202521E-04 -.97264654429934E-04 0.48311489724819E-05 0.16055171464248E-03 -.73890508058691E-03
  89        7PZ      0.12435985888302E-04 -.29428823359858E-04 0.17936705051512E-04 -.40246811352264E-05 -.57503652535679E-04
  90        8PX      0.95055139133713E-03 -.44818672581366E-03 0.31288784415343E-02 -.10482422689340E-02 0.26706100536852E-03
  91        8PY      0.39028847859156E-03 -.36043390993009E-03 0.10074288852430E-02 -.10861777112189E-02 0.10915599189541E-02
  92        8PZ      0.32813523101715E-05 0.74980229214275E-04 -.38014336077121E-04 -.13229172870395E-04 0.72020725056123E-04
  93        9PX      0.11329159620018E-02 -.16463766717238E-02 0.12241623487892E-01 0.14980169061536E-02 -.14170335276628E-02
  94        9PY      0.68526205071564E-03 0.32694856374414E-04 0.68671669927977E-02 0.47179886438906E-02 -.36124553648267E-02
  95        9PZ      0.23531375257143E-04 -.62140714834437E-04 -.74145236229297E-04 0.19578149055559E-03 -.39682330222220E-03
  96       10XX      -.70680647202174E-06 -.59459438614154E-04 0.16908038906870E-03 -.22383410273168E-03 0.12347768821484E-03
  97       10YY      0.94633825324098E-05 -.32180847439413E-05 0.52285053622260E-04 -.11619077211343E-03 0.55375069352489E-03
  98       10ZZ      0.34888239852064E-04 -.14938670740434E-04 0.12431774083099E-03 -.85940351812291E-04 -.13913767745499E-03
  99       10XY      -.23844550436220E-04 -.11569032241288E-03 -.74294718853485E-05 -.74005679161131E-04 -.19620299295353E-03
 100       10XZ      0.25552838037411E-05 0.46172529737876E-05 0.29503158934597E-05 -.13369111615630E-05 -.31182063568802E-04
 101       10YZ      0.62606454919252E-05 0.35170258546736E-05 0.11931486089036E-04 0.57476147487951E-05 0.56735664982147E-04
 102 5   C  1S       -.64548304049628E-07 0.15859343281312E-04 -.38134372847326E-04 -.85379035966478E-02 0.56426505128565E+00
 103        2S       0.10845664476742E-05 -.35429094412661E-04 -.28218649141323E-04 -.69648924623396E-02 0.45968693797818E+00
 104        3S       0.65460170758927E-04 0.30478773853557E-04 0.23046078092929E-03 -.46465172923573E-03 0.19109115863866E-01
 105        4S       -.70604422768126E-03 -.17705048503739E-02 -.95671358561536E-03 0.20692174928220E-03 0.11681927739297E-01
 106        5S       0.13984810726338E-02 0.10797197315164E-02 -.13868075093612E-01 0.11778776546051E-01 -.18644772969997E-01
 107        6PX      -.19915067267067E-04 0.71738425532018E-04 -.13448389552997E-04 -.21169562757412E-04 -.43605389083416E-05
 108        6PY      -.39375389702204E-05 0.56137348103633E-04 0.47061181486389E-05 -.54310952044189E-05 -.39824566950334E-03
 109        6PZ      -.51172816763330E-05 -.62007816575460E-05 -.66715255242021E-05 0.64830889692289E-05 -.62614515368764E-05
 110        7PX      0.96332314786251E-04 -.59052881034865E-03 -.68387168937547E-05 0.22682324558330E-03 0.24162568267481E-03
 111        7PY      0.32564467851602E-04 -.53948963017086E-03 -.41012801615781E-05 0.43648246165122E-04 0.23280609866865E-03
 112        7PZ      0.20708427787451E-04 0.36195513426558E-04 0.35504036541000E-04 -.34539742595061E-04 0.46712148297157E-06
 113        8PX      0.21878470472274E-03 0.10480936692379E-02 0.63685958841927E-03 -.22216760389586E-03 -.21245318607982E-02
 114        8PY      0.41638056986549E-04 0.46805613671769E-03 -.28950352996022E-03 -.28064867399694E-03 0.37309515239268E-04
 115        8PZ      -.85302181812089E-04 -.81398529049890E-04 -.12561022065735E-03 0.19182221413451E-04 0.23242226562941E-03
 116        9PX      -.84043418934956E-03 -.15674541260277E-03 0.54118289783548E-02 -.42653884106317E-02 0.76086385153743E-02
 117        9PY      0.40867591825009E-03 -.79570506229603E-04 -.21367701603212E-03 0.41839760264655E-02 -.51403567073367E-02
 118        9PZ      0.12078193997304E-03 0.54877058857946E-04 -.67027447635337E-03 0.70919665431419E-03 -.12996886920990E-02
 119       10XX      -.30684373118231E-04 0.34894738280823E-03 -.36633867113536E-04 0.36585227621643E-04 -.77026661997608E-02
 120       10YY      0.11521842146317E-04 0.16466061891625E-03 0.41746824201401E-04 0.66959719014555E-04 -.76447900050875E-02
 121       10ZZ      0.26880874621815E-04 -.48470482681701E-04 0.98923811954274E-04 0.31078793653131E-04 -.74093094041000E-02
 122       10XY      -.24355464494282E-04 0.56374453895172E-03 -.33082378588153E-04 -.38757549859589E-04 0.16081835039065E-03
 123       10XZ      0.14489798910547E-04 -.90054292867093E-05 0.18560711982405E-04 -.99573641235139E-05 0.81515553635864E-04
 124       10YZ      -.36826601321906E-05 -.50915170916415E-04 -.97306851560026E-05 0.16410603091536E-04 -.43297485026549E-04
 125 6   C  1S       0.63285599246666E-04 -.42935445548721E-05 0.56381044222094E+00 -.12289071278446E-01 -.15108902721396E-03
 126        2S       -.55466464346319E-04 0.20735256127996E-04 0.45950763560594E+00 -.10004064840861E-01 -.11555322715289E-03
 127        3S       0.22048626666721E-03 0.12307401052877E-03 0.19787766959990E-01 0.53704483815409E-04 0.14435543113911E-03
 128        4S       -.22742142186661E-02 -.16153189232947E-02 0.14743734646376E-01 -.42787590509585E-02 -.24792434684388E-02
 129        5S       0.88354975691609E-02 -.29842592197786E-02 0.12398566577649E+00 0.52841905786453E-01 0.25538863728444E-01
 130        6PX      -.15114299179329E-03 -.17947400189758E-04 0.89492034251275E-04 -.12338297487890E-04 0.22161672340408E-04
 131        6PY      -.52746947863820E-04 0.15502132110839E-04 0.88920595518284E-04 -.81162625145253E-05 0.24610800081189E-05
 132        6PZ      0.35489075798733E-06 -.23498841825154E-05 0.24216152653598E-04 0.44241974720856E-06 -.18592971631152E-06
 133        7PX      -.15615043120098E-02 0.34128271747368E-04 -.12167823613304E-03 0.99076206634424E-03 -.11297427553712E-03
 134        7PY      -.58522385986520E-03 -.79753666096798E-04 -.11229304691029E-03 0.38455514801126E-03 -.19687733970150E-04
 135        7PZ      0.11795819030553E-04 0.12386657593835E-04 -.10775874228220E-03 0.58084248232235E-04 0.36363400427258E-05
 136        8PX      0.14293407885556E-01 -.13078767234447E-02 0.11431537797363E-01 -.62534561211801E-02 -.30018876861821E-02
 137        8PY      0.53286521235260E-02 -.10282011924088E-02 0.44475151589996E-02 -.26240812991135E-02 -.90242127511818E-03
 138        8PZ      0.34038592481271E-03 -.17536844196667E-03 0.64447175935578E-03 -.22346311753141E-03 -.20407693646999E-03
 139        9PX      0.40821968820740E-02 -.76808898987438E-03 0.26599635589313E-01 0.12312656002946E-01 0.33252786081570E-02
 140        9PY      0.20471771783803E-02 -.10851044145041E-03 0.11175664624343E-01 0.60759478568483E-02 0.55864591577686E-04
 141        9PZ      0.93188031339690E-04 0.57115641579368E-04 0.28188598249104E-02 0.96531603107306E-03 0.15251015405445E-02
 142       10XX      0.18837394111225E-02 0.35921986508021E-03 -.86604434462546E-02 0.14341881493770E-02 0.61931233051545E-04
 143       10YY      -.15901944101355E-03 -.32834323765761E-04 -.80236558900890E-02 0.32743956619823E-03 0.56241722861933E-04
 144       10ZZ      -.49676188063528E-03 0.43119077470108E-04 -.79711816631437E-02 0.10805559867046E-03 0.39483112250241E-04
 145       10XY      0.10163906714808E-02 0.22288495446637E-04 -.30594453120878E-03 0.54588976764170E-03 0.46382952627874E-04
 146       10XZ      0.49230758594330E-04 0.70666124008316E-06 -.16781315864500E-04 0.75958840101223E-04 -.88374300346915E-05
 147       10YZ      0.18156269266095E-04 -.18995939632742E-04 -.75213994297286E-05 0.24768768398874E-04 0.38051836882329E-05
 148 7   N  1S       0.55827484853685E+00 0.15065334526312E-03 -.27598009345349E-03 0.67276699617860E-05 -.59616698102906E-06
 149        2S       0.46246044356564E+00 0.12254890577365E-03 -.33557051069510E-03 0.22017350298981E-04 0.37148020194124E-05
 150        3S       0.17795308809364E-01 -.17060412491474E-04 0.40282529137661E-03 -.16461794321490E-03 0.49817869005801E-04
 151        4S       0.15509391908544E-01 -.77571571407565E-03 0.79141563332546E-02 -.30149710752583E-02 -.15165366351117E-02
 152        5S       0.46896437822282E-02 -.22153603302300E-03 -.52881742624355E-02 -.40463027657573E-02 -.11642831901733E-02
 153        6S       -.38629208011269E-04 0.47132858997015E-03 -.77199903689941E-03 0.43126385811629E-03 0.31600759039646E-03
 154        7S       -.15205650617238E-03 -.88739510294124E-03 0.65333094409196E-03 -.18068676483863E-02 -.69036695069361E-03
 155        8S       0.43034861604770E-04 -.22220634122630E-04 -.19769872274987E-04 -.55797160777364E-04 0.28299826441898E-04
 156        9PX      0.20303799049115E-02 0.10634140925110E-04 0.15071101980682E-03 -.71372681000312E-05 0.84006096384814E-05
 157        9PY      0.76671322700068E-03 0.19216912977850E-04 0.51150700132089E-04 0.53033656626575E-05 -.39369874167196E-05
 158        9PZ      -.36825426100728E-04 0.35187708253307E-05 -.95784662358340E-06 -.67647984564483E-06 0.71071333073032E-05
 159       10PX      -.26685833206763E-02 -.12663922426072E-03 0.11972805208019E-02 -.35586740321470E-03 -.65362310103953E-04
 160       10PY      -.98853936943405E-03 -.10528822567838E-03 0.45689368944586E-03 -.16254792806717E-03 0.36999936440116E-05
 161       10PZ      0.57542014981296E-04 -.13153609317166E-04 0.91199976345355E-05 0.64566569745783E-05 -.31224291056367E-04
 162       11PX      0.47566708896612E-02 -.24472841600315E-03 0.21608068422232E-02 -.58869466902608E-03 -.34988092624635E-03
 163       11PY      0.17500260522575E-02 0.10400789017603E-03 0.73069173556371E-03 -.57156097230811E-04 -.23434757216999E-03
 164       11PZ      -.14694504765162E-03 0.65406418576381E-04 -.13666164480015E-03 0.98577825517797E-04 0.12943312729978E-03
 165       12PX      0.56431527658364E-03 -.29982726755304E-04 -.35585516030548E-02 -.21119861683351E-02 0.57075075009008E-04
 166       12PY      0.10407517624907E-03 -.16816840790108E-04 -.14652537052662E-02 -.10999455780479E-02 0.13944812096208E-03
 167       12PZ      -.23217346686068E-04 -.26431694823571E-04 -.55978645679514E-03 -.19159508814701E-03 -.31086264904636E-03
 168       13PX      -.23183427570646E-03 0.19586551858169E-03 -.30298917393225E-03 0.23097763954896E-04 0.19323896350950E-03
 169       13PY      -.10362431677916E-03 -.52277360266027E-05 -.28157776428655E-03 -.21574027765031E-03 -.42440645573667E-05
 170       13PZ      -.46875152735100E-05 -.88171408946810E-05 -.16170757543434E-03 -.49969457228559E-04 -.10868646664945E-03
 171       14PX      0.27088268571871E-04 -.20963515267683E-03 0.16066834091227E-03 -.36248088047150E-03 -.18648593956115E-03
 172       14PY      0.32889819098687E-04 0.36171215648268E-05 0.72435650474120E-05 0.78070504289678E-04 0.45832707922191E-04
 173       14PZ      -.37297613972904E-05 0.57334642889429E-06 0.49882084409783E-04 -.20107065016065E-05 0.51903165862823E-04
 174       15XX      -.70418755826599E-02 -.67532431418157E-04 0.30322945338539E-03 -.11809296230070E-03 -.11612196693123E-04
 175       15YY      -.65839301057859E-02 -.37039596676927E-05 -.23094879442864E-03 0.25243111885224E-04 0.19863657370029E-04
 176       15ZZ      -.65000683853444E-02 0.63190180894338E-05 -.31000885596636E-03 0.46017718899109E-04 0.25154297574513E-04
 177       15XY      -.22544068274846E-03 -.44347686909010E-04 0.25989969731383E-03 -.59396576542840E-04 -.16051889657711E-04
 178       15XZ      0.42327678265568E-05 0.31104041927521E-05 -.20703388614391E-04 0.22596489866087E-04 0.64361340990605E-05
 179       15YZ      0.22986665368622E-05 0.30227379992727E-05 -.68733703211408E-05 0.89521454280804E-05 0.10960033858893E-05
 180 8   H  1S       -.56366391363483E-05 -.24815346982107E-04 -.23815599836531E-04 0.18186696226243E-04 0.23290973068548E-05
 181        2S       0.20263383425928E-05 0.47873878782395E-03 0.67715483000528E-04 0.91114506621756E-04 0.16292733219210E-03
 182        3S       0.82606076282889E-04 0.27246931381491E-03 0.10903073228918E-03 -.42338566646149E-03 -.20655051475888E-03
 183        4S       0.43958979762693E-03 0.39756778074268E-04 0.11081816383733E-02 -.45363976694226E-03 -.25075673692711E-02
 184        5PX      -.22023212985371E-04 0.33069363267650E-04 -.57780363048864E-04 -.29011992225516E-04 -.20638744120897E-07
 185        5PY      0.11069192999938E-04 -.11825370473308E-03 -.83650544490530E-04 -.67941480649162E-04 -.37733392976830E-04
 186        5PZ      0.40963522114416E-05 0.72202473675597E-05 -.11869991407062E-05 0.64730437287897E-05 -.46782347393029E-05
 187 9   H  1S       0.18226634229459E-04 0.10861197496712E-04 0.41323093218941E-04 -.96621260923038E-05 -.11128297875242E-04
 188        2S       -.15852062394850E-03 0.80962159823700E-04 -.48968812360632E-03 0.20599229107880E-03 -.90167013307433E-04
 189        3S       -.21662089787907E-03 0.79911686298206E-04 -.14591435427853E-02 0.63726206773943E-03 -.28810803290968E-03
 190        4S       -.90051481294462E-04 0.54065202326301E-03 -.43529911496249E-02 -.59660482240504E-03 0.85588380094682E-04
 191        5PX      0.12306430114071E-04 -.33028208785167E-04 0.56229854410134E-04 -.52490257995153E-04 0.21577655884033E-04
 192        5PY      0.12649896428920E-04 0.42950992272692E-04 0.65331962303439E-04 -.10803187518322E-04 0.11484575771040E-03
 193        5PZ      -.31835032464415E-05 -.92539272536278E-07 -.85268427642502E-05 0.82010930058597E-05 0.28504099127474E-06
 194 10  H  1S       0.16634934350788E-05 0.20834789400330E-04 0.35850623392582E-05 0.25430849805666E-04 0.84067932847060E-04
 195        2S       -.16827362146844E-05 0.92620476339735E-04 -.23817565707121E-04 -.16208375062629E-03 0.84512752794953E-03
 196        3S       -.32891503665534E-04 -.25463265817893E-03 -.32073537342305E-03 0.59656230177220E-03 -.11493394588125E-02
 197        4S       0.51077957166506E-03 0.10683716320494E-03 -.18214647998620E-02 0.20614091313980E-02 -.30780147583241E-02
 198        5PX      0.78799495363526E-06 -.11134549055328E-03 0.15469650077518E-05 0.38824861585791E-04 -.54055788610544E-03
 199        5PY      -.46310778469645E-05 -.58796721703628E-04 -.16027327450080E-05 0.13867091710871E-04 0.14160196907708E-03
 200        5PZ      0.35693627732572E-05 0.72754223698046E-05 0.33103552823827E-05 -.32717533231576E-05 0.11700856042300E-03
                           6         7         8         9        10
                           O         O         O         O         O
     Eigenvalues --  -.10133244961553E+02 -.10126072291900E+02 -.86580367447739E+00 -.83231545014447E+00 -.70217427851812E+00
   1 1   N  1S       0.47007166366263E-05 0.53706697734419E-05 -.73240659782184E-01 0.23362065039976E-01 0.64749357278950E-01
   2        2S       -.82109963525243E-05 -.13415370669687E-04 -.11499851041487E+00 0.36688890840741E-01 0.10253103830491E+00
   3        3S       0.13110003059211E-04 -.24607274937192E-04 0.31389248174119E+00 -.10092789776081E+00 -.28785364096453E+00
   4        4S       0.50009557094568E-03 0.10533908998804E-02 0.21348571158239E+00 -.67114669988672E-01 -.21421951844408E+00
   5        5S       -.10973855511490E-02 -.13026855146548E-02 -.12423279552629E+00 0.35380222239383E-01 0.40398302092823E-01
   6        6S       0.80911022745436E-03 0.87487554112417E-03 -.18062232534776E-01 0.16567799079426E-01 0.27076574012538E-01
   7        7S       -.72821997690893E-03 -.80508261334014E-03 0.20059661845456E-01 -.25653492169102E-01 -.18886476148294E-01
   8        8S       0.12417924318181E-05 -.26168242074140E-04 -.57059107311342E-04 -.23937488376255E-03 0.25589671748097E-03
   9        9PX      0.62227068044194E-05 -.16680157280682E-04 0.70954532684978E-03 -.55588433873009E-02 -.19159003971794E-01
  10        9PY      0.24642849853359E-04 0.16402614628700E-04 0.51882571976988E-01 -.17401248610448E-01 -.24149020990704E-01
  11        9PZ      -.16503480561650E-05 0.15469623950768E-05 0.93549788871020E-04 0.85108774620560E-04 0.86248581491104E-03
  12       10PX      -.42117619068943E-04 0.82606926715217E-04 -.11554738158158E-02 -.69956312351845E-02 -.26489873963618E-01
  13       10PY      -.73634830898133E-04 -.58987802341825E-04 0.79274411510247E-01 -.26720287709619E-01 -.37481221689796E-01
  14       10PZ      0.86251517954676E-05 -.80880659516915E-05 0.44269084374604E-03 0.30163667648545E-04 0.85362787415914E-03
  15       11PX      0.93601429779027E-04 -.43451803753312E-04 -.50629016029490E-02 -.22099658873722E-02 -.95283281778278E-02
  16       11PY      0.39795279812336E-03 0.42193026708335E-03 0.29686509128133E-01 -.10155710528110E-01 -.14760942571974E-01
  17       11PZ      -.34623998520517E-04 0.54220829196820E-04 0.34625855599880E-03 -.45318663764623E-03 0.54727858543955E-03
  18       12PX      0.62143353797550E-03 -.14984174818081E-02 0.55316849554745E-02 0.14440905467047E-02 0.46238827614303E-03
  19       12PY      -.45706312967031E-03 -.71880907706743E-03 -.31226278160195E-01 0.94682631580871E-02 0.50556211390172E-02
  20       12PZ      0.15411025539138E-03 0.10903679368791E-03 -.50844917037992E-03 -.79146916373506E-03 0.81001787921599E-03
  21       13PX      -.40237761214495E-03 -.23601983529010E-03 0.41681701626477E-02 -.20885120046627E-02 -.61550559666571E-02
  22       13PY      0.22331944375143E-03 0.27213347996339E-03 0.32740826849854E-02 0.11902229803936E-02 0.63191495735474E-02
  23       13PZ      0.11401150176987E-03 0.43357470021978E-04 0.10100882715416E-03 -.20618022632869E-03 0.69260758374611E-03
  24       14PX      0.18123308288039E-03 0.24964689604882E-03 -.50478532673539E-02 0.58468350965306E-02 0.45421119820650E-02
  25       14PY      -.68927647388498E-04 -.33733264102911E-05 -.13483065923576E-02 0.28677864605548E-03 -.11822634332684E-02
  26       14PZ      -.17861944330684E-04 -.19096646391533E-04 -.53494323450237E-04 -.38528849013278E-04 -.98691540607972E-04
  27       15XX      -.10617595903142E-04 -.37259432298051E-04 0.32925822025623E-02 -.77529844550538E-03 -.49963492490768E-02
  28       15YY      -.64373084588988E-04 -.77408469492051E-04 0.64426749346681E-02 -.25872948311313E-02 0.54654202720473E-03
  29       15ZZ      -.16556895529614E-05 -.25223679533701E-04 -.78215544651502E-02 0.22470166421987E-02 0.32744687357294E-02
  30       15XY      0.20362449843960E-04 0.23222987624574E-04 0.76840123424110E-03 -.89785796185744E-03 -.49142528394673E-02
  31       15XZ      -.18789838652137E-05 -.22843944528221E-06 -.64044922707131E-03 0.21566821189764E-03 0.57034885945499E-03
  32       15YZ      0.50070107655225E-05 -.43794305732539E-05 0.12420220988591E-05 -.19107099035707E-04 0.23061423493029E-03
  33 2   C  1S       -.68919296838601E-02 0.51964077759975E-03 -.55527475982235E-01 0.24539421277595E-02 -.17681897808061E-01
  34        2S       -.56304266127633E-02 0.39757172980625E-03 -.84744822691760E-01 0.35874461053932E-02 -.27047896140451E-01
  35        3S       0.16514628050159E-03 -.14031701910122E-03 0.21902058525069E+00 -.10365953647337E-01 0.72067094557800E-01
  36        4S       -.33042731601273E-02 0.55732059453112E-02 0.76680305547780E-01 -.74167051260922E-01 0.31526681930248E-01
  37        5S       0.33832658259481E-01 0.11222866038405E-01 -.51653121601697E-01 -.59432213857707E+00 0.39360259244161E-01
  38        6PX      -.12925731791183E-04 0.12699203402378E-04 0.30197822783729E-01 -.27012619669667E-01 -.22198340849512E-01
  39        6PY      -.53469835029407E-05 0.17679522070252E-04 -.93056972258584E-03 -.45930078442076E-02 0.59593322727255E-01
  40        6PZ      0.57180341456659E-05 -.11054830665562E-04 -.32078450851725E-02 0.19110668578875E-03 -.24960430351371E-03
  41        7PX      0.29902292246978E-03 -.95232468620055E-04 0.52447834549672E-01 -.29707840430136E-01 -.34937116824412E-01
  42        7PY      0.11967962752484E-02 -.18777445214361E-03 -.33274301993280E-02 -.13911347379903E-02 0.90733203422288E-01
  43        7PZ      -.64014381767433E-04 0.49657500733053E-04 -.49128703296961E-02 0.10516820787766E-02 -.20049267240024E-03
  44        8PX      -.28873862327403E-02 -.29341569256269E-02 0.14443007381240E-01 0.28902527002620E-01 -.47542473420326E-02
  45        8PY      -.34867096369082E-02 0.15714226883761E-03 0.14516652329706E-01 0.10776331506858E-01 0.19399765664972E-01
  46        8PZ      0.12340139652983E-03 -.37127196735116E-03 0.46231216917846E-03 0.32854010894176E-02 -.73829408439045E-03
  47        9PX      0.21970050722346E-02 -.13662423690600E-03 0.17336585428735E+00 0.22770650780850E+00 0.14742296537945E-01
  48        9PY      0.85009107002262E-02 0.41065281736705E-02 0.53712241687135E-01 0.60689098933275E-01 0.59141902995660E-01
  49        9PZ      -.11493341248111E-02 0.43410646889017E-03 -.15033761888247E-02 0.10324836267286E-01 0.58734876236435E-03
  50       10XX      0.22519106183000E-03 -.14979272088684E-03 0.17219062366973E-01 -.95326612008098E-02 -.58311505016055E-02
  51       10YY      0.90701385942198E-03 -.24234550281452E-03 0.37909075396383E-02 -.67909789644349E-03 0.10760859581915E-01
  52       10ZZ      0.55117321821226E-04 -.72635030309012E-04 -.10227219362891E-01 0.17060132388883E-02 -.13038559231761E-02
  53       10XY      0.30797635050705E-03 -.16472080211823E-03 -.27629133398916E-02 -.11533648305692E-02 0.15075474713556E-01
  54       10XZ      0.10155667979354E-04 0.74682103752976E-05 -.11390673284217E-02 -.30811191147305E-03 0.91419424984668E-03
  55       10YZ      -.35758516294281E-04 0.37802102851604E-06 0.59180743616658E-04 -.35913852721656E-03 -.10498199918348E-02
  56 3   C  1S       0.56226719811205E+00 -.44816273118109E-01 -.39608897455472E-01 0.96628598610726E-02 -.82046990940160E-01
  57        2S       0.45798707531332E+00 -.36482017475072E-01 -.60693371829628E-01 0.14848496779904E-01 -.12754317739723E+00
  58        3S       0.20020652810425E-01 -.57644882812259E-03 0.15189850496653E+00 -.37446441857573E-01 0.32709022366702E+00
  59        4S       0.16404669730947E-01 -.89973608193811E-02 0.64201208189561E-01 -.70043477418655E-02 0.18765484098549E+00
  60        5S       -.54202460279065E-01 0.21359870184025E-01 -.91028948790438E-01 0.23992414198888E+00 -.10103588867231E+00
  61        6PX      0.34795579875303E-03 0.51647111205168E-04 0.21300547468008E-01 -.10695090644520E-01 0.41044888248538E-01
  62        6PY      -.82339411541098E-04 0.74086905857522E-04 -.25771061609773E-01 0.43085641650790E-02 -.73340807765576E-02
  63        6PZ      0.15754205569473E-03 -.16055843761860E-04 0.16859841250892E-02 -.48414657869022E-03 0.43904410996425E-02
  64        7PX      -.59841710180437E-03 0.15719713163204E-02 0.22971113815112E-01 -.12493366544280E-01 0.48506738666575E-01
  65        7PY      0.30832732038265E-03 -.17327195870339E-03 -.35763496449496E-01 0.69681344152194E-02 -.78117714720101E-02
  66        7PZ      -.16480420001441E-03 0.11299659429043E-03 0.20686336337389E-02 -.58583763561302E-03 0.55041578069230E-02
  67        8PX      0.28063255692493E-02 -.28513422195902E-02 0.12266068946082E-01 -.61461958168595E-03 0.12592744115906E-01
  68        8PY      -.33033343030237E-02 0.14807995829341E-02 -.25535193825069E-02 -.95009715809015E-04 -.27392054637825E-02
  69        8PZ      0.32736068622126E-03 -.17862832651293E-03 -.20437958475854E-03 -.15328270931057E-03 0.20449482509517E-02
  70        9PX      -.80738998201021E-02 0.52593363726813E-02 -.29227137889850E-01 0.40171221416088E-01 -.96248561604149E-02
  71        9PY      0.13340824233419E-01 0.66029294350817E-03 0.33637372245125E-01 -.31817592229015E-01 0.59112698515218E-01
  72        9PZ      -.51409603518674E-03 0.76225672332990E-04 0.51958502775754E-03 0.35498014887970E-02 -.22276486755573E-02
  73       10XX      -.82842540292899E-02 0.17104193148398E-02 0.21702528710652E-02 -.55195008171509E-03 0.87871174687766E-02
  74       10YY      -.85810715780431E-02 0.93896221440610E-03 0.64560947957700E-02 -.17073498852539E-02 0.88170140200901E-03
  75       10ZZ      -.78944010025316E-02 0.68388548272155E-03 -.70035497309240E-02 0.16762755880340E-02 -.11059728982524E-01
  76       10XY      0.13754922114415E-03 -.10635327092103E-03 -.23058001244014E-02 0.14609848747949E-02 0.16334817990685E-02
  77       10XZ      -.36484978460562E-05 0.70356477614893E-04 0.34527818659428E-03 -.90065995065333E-04 0.87273133880623E-03
  78       10YZ      0.50718498171630E-05 -.80663054316867E-05 -.34276467186404E-03 0.13318832976037E-03 -.39678956597068E-03
  79 4   C  1S       0.44628233496311E-01 0.56238267699092E+00 -.35726825052517E-01 0.12796534957999E-01 -.61896462579681E-01
  80        2S       0.36374041646992E-01 0.45808764195715E+00 -.54426059947719E-01 0.19595734378246E-01 -.95856579871453E-01
  81        3S       0.23770957360982E-02 0.19754738552831E-01 0.13779842494476E+00 -.49228266764896E-01 0.24846132260249E+00
  82        4S       -.53279715037130E-02 0.15115384466381E-01 0.57178590629757E-01 -.31956140673750E-01 0.13199011436559E+00
  83        5S       0.29474177055006E-01 -.34935326510011E-01 -.53536982460020E-01 -.19101448736373E+00 -.36165681585043E-01
  84        6PX      -.73629854907035E-04 -.43484732660332E-04 -.19628291802336E-01 0.56693098072284E-02 -.56684134860551E-01
  85        6PY      0.36605305502951E-04 -.15923539197986E-03 -.24560875306048E-01 0.87148411906211E-02 -.25848379323762E-02
  86        6PZ      -.12042400943636E-04 -.90272663662868E-04 -.23562939736976E-02 0.86720457295594E-03 -.33412294416720E-02
  87        7PX      -.14740811642020E-02 0.47035562906454E-03 -.25811334748643E-01 0.76546060062987E-02 -.75546184810486E-01
  88        7PY      -.28387851220452E-03 0.60373578811084E-03 -.36679580857425E-01 0.13145585284513E-01 0.94326958015395E-03
  89        7PZ      -.50019683506921E-04 0.15320081992552E-03 -.33790549933864E-02 0.13573636895622E-02 -.41454631348250E-02
  90        8PX      0.27065496726544E-02 -.37920916526231E-02 0.24982584203173E-02 0.92514620564835E-02 -.96070198561241E-02
  91        8PY      0.12113685919352E-02 -.28407444746779E-02 -.79693707808755E-02 0.64156428255232E-02 0.28458240316792E-02
  92        8PZ      0.97478600498503E-04 -.25414778922473E-03 -.42508652037792E-03 0.20694980034399E-04 -.15491048566707E-02
  93        9PX      -.46644472341068E-02 0.10191039226723E-01 0.13824705107377E-01 0.56043563656052E-01 0.23879910114847E-01
  94        9PY      -.45177843257438E-02 0.63099717643767E-02 0.24315835347079E-01 0.23774396991844E-01 0.24562587289856E-02
  95        9PZ      -.33063204088830E-03 0.53685620696993E-03 -.52019812479627E-03 0.24061811786591E-03 0.14295049819173E-02
  96       10XX      0.30086823994009E-03 -.86808484357825E-02 0.78949982357306E-02 -.25329199201137E-02 0.20551487238872E-01
  97       10YY      -.43216543112543E-03 -.80851897247946E-02 0.55134496671393E-02 -.19324948937564E-02 -.75593138094604E-02
  98       10ZZ      -.60768695256537E-03 -.77117961481495E-02 -.65425366219442E-02 0.25185967164338E-02 -.82865906001436E-02
  99       10XY      0.59822043799075E-04 -.16475190268967E-03 0.40431036179689E-02 -.10725089448207E-02 0.63380073217425E-02
 100       10XZ      0.46574942372540E-04 0.15374252711255E-04 0.32323676923396E-03 -.10511846696380E-03 0.79789223867673E-03
 101       10YZ      0.43892952235488E-05 -.20911565728733E-04 0.85485982518912E-03 -.27399312319174E-03 -.10889611338608E-04
 102 5   C  1S       -.23360887661168E-03 -.30829146387305E-02 -.49714270749713E-01 0.18611868906657E-01 0.22423002237821E-01
 103        2S       -.23157726311775E-03 -.25172604015799E-02 -.76092578367025E-01 0.28583464687999E-01 0.35318994277265E-01
 104        3S       0.43145737085906E-05 -.84042680514580E-04 0.19687711693609E+00 -.73866880623837E-01 -.93768301926157E-01
 105        4S       0.82982858488709E-03 -.22933693570334E-02 0.86815290876766E-01 -.39857849970896E-01 -.52752240605537E-01
 106        5S       -.59532741701873E-02 0.12525721783388E-01 0.29672810815793E-01 -.71917102293117E-01 0.23560371347070E-02
[...]
 132         V       0.18848952035382E+01 0.27609046851591E+01
 133         V       0.19021997469086E+01 0.25810573190231E+01
 134         V       0.19386841957758E+01 0.27088700221258E+01
 135         V       0.19848984204467E+01 0.28791373467214E+01
 136         V       0.20212437275349E+01 0.29419189465761E+01
 137         V       0.20447603975990E+01 0.28039462323152E+01
 138         V       0.21028770815731E+01 0.29820380820787E+01
 139         V       0.21436433117299E+01 0.32769985635907E+01
 140         V       0.21640127541845E+01 0.31812258319386E+01
 141         V       0.21800098885750E+01 0.31687416230398E+01
 142         V       0.22244800772495E+01 0.33261794467004E+01
 143         V       0.22919640686924E+01 0.34893245230938E+01
 144         V       0.23273590112705E+01 0.33366011560858E+01
 145         V       0.23409908778724E+01 0.32987828955757E+01
 146         V       0.23535402118993E+01 0.33615528733352E+01
 147         V       0.24139077078620E+01 0.37546029710979E+01
 148         V       0.24314174129478E+01 0.34879918347278E+01
 149         V       0.25332471873558E+01 0.41899574746325E+01
 150         V       0.25619702265368E+01 0.39329439935418E+01
 151         V       0.26130614351883E+01 0.39726755360155E+01
 152         V       0.26878659744997E+01 0.42125311970496E+01
 153         V       0.27225755645547E+01 0.39012678243313E+01
 154         V       0.28080785506363E+01 0.46825567258726E+01
 155         V       0.28658409383713E+01 0.46523363919675E+01
 156         V       0.29122774063295E+01 0.49568466898417E+01
 157         V       0.29371264776871E+01 0.51547055206758E+01
 158         V       0.29836629810272E+01 0.49181168415412E+01
 159         V       0.29890089225842E+01 0.49929527178400E+01
 160         V       0.30132260312132E+01 0.53291872939633E+01
 161         V       0.30359162860717E+01 0.47023941236251E+01
 162         V       0.30608106924496E+01 0.46082661883391E+01
 163         V       0.31105961983003E+01 0.50424262709541E+01
 164         V       0.31416561101565E+01 0.61470664164349E+01
 165         V       0.31592698961299E+01 0.57243004785225E+01
 166         V       0.31899252603836E+01 0.57390576059921E+01
 167         V       0.31989827848600E+01 0.53047171226286E+01
 168         V       0.32418139413551E+01 0.57337364802111E+01
 169         V       0.32717657480135E+01 0.64951810397380E+01
 170         V       0.32964911691511E+01 0.62170526691982E+01
 171         V       0.33167625561685E+01 0.64258755632090E+01
 172         V       0.33914260302985E+01 0.59408956406821E+01
 173         V       0.34433402884266E+01 0.69674509324642E+01
 174         V       0.34852079987497E+01 0.69366201020475E+01
 175         V       0.36189681349912E+01 0.70892729740087E+01
 176         V       0.36373698903062E+01 0.66512215665164E+01
 177         V       0.36519087737353E+01 0.69948138685801E+01
 178         V       0.37377759223728E+01 0.70978283649892E+01
 179         V       0.37922193204250E+01 0.64558088298757E+01
 180         V       0.38269222945546E+01 0.71226117441831E+01
 181         V       0.38741493939941E+01 0.67111985363459E+01
 182         V       0.41970388337321E+01 0.90067912893130E+01
 183         V       0.42629595218743E+01 0.85221803358192E+01
 184         V       0.42810102258764E+01 0.81381600137605E+01
 185         V       0.43145295399498E+01 0.84827345585777E+01
 186         V       0.44448846203759E+01 0.75026780675735E+01
 187         V       0.45679393488779E+01 0.78815537755308E+01
 188         V       0.46203628862964E+01 0.92245209490064E+01
 189         V       0.46641727844410E+01 0.90276372937871E+01
 190         V       0.48536309682200E+01 0.85317409930753E+01
 191         V       0.52904292838969E+01 0.92737576134568E+01
 192         V       0.53817313787132E+01 0.10303820357909E+02
 193         V       0.59467730835505E+01 0.10518249666766E+02
 194         V       0.26857922784253E+02 0.62345504794256E+02
 195         V       0.26941227355478E+02 0.62421631999254E+02
 196         V       0.26967179269451E+02 0.62442602615483E+02
 197         V       0.26999358904891E+02 0.62491533260693E+02
 198         V       0.27155602022109E+02 0.62599936818650E+02
 199         V       0.39881722571779E+02 0.91293380349205E+02
 200         V       0.40052074905879E+02 0.91456097748728E+02
 Total kinetic energy from orbitals= 2.997922314370D+02
 No NMR shielding tensors so no spin-rotation constants.
 Leave Link  601 at Fri May 26 02:43:41 2023, MaxMem= 3276800000 cpu:       2.8
 (Enter /local/g09-source/g09/l701.exe)
 Compute integral first derivatives.
 ... and contract with generalized density number  6.
 R6Disp: Adding dispersion energy 1st derivatives to the gradient.
 Leave Link  701 at Fri May 26 02:43:41 2023, MaxMem= 3276800000 cpu:       2.0
 (Enter /local/g09-source/g09/l702.exe)
 L702 exits ... SP integral derivatives will be done elsewhere.
 Leave Link  702 at Fri May 26 02:43:41 2023, MaxMem= 3276800000 cpu:       0.4
 (Enter /local/g09-source/g09/l703.exe)
 Compute integral first derivatives, UseDBF=F ICtDFT=           0.
 Integral derivatives from FoFDir, PRISM(SPDF).
 Calling FoFJK, ICntrl=      5127 FMM=F ISym2X=0 I1Cent= 0 IOpClX= 0 NMat=1 NMatS=1 NMatT=0.
 FoFJK:  IHMeth= 1 ICntrl=  5127 DoSepK=T KAlg= 1 I1Cent= 0 FoldK=F
 FoFCou: FMM=F IPFlag=           0 FMFlag=      100000 FMFlg1=         800
         NFxFlg=           0 DoJE=F BraDBF=F KetDBF=F FulRan=T
         Omega=  0.000000  0.000000  1.000000  0.000000  0.000000 ICntrl=    5527 IOpCl=  0
         NMat0=    1 NMatS0=    1 NMatT0=    0 NMatD0=    1 NMtDS0=    0 NMtDT0=    0
         I1Cent=           0 NGrid=           0.
 Symmetry not used in FoFCou.
 Leave Link  703 at Fri May 26 02:44:04 2023, MaxMem= 3276800000 cpu:     227.6
 (Enter /local/g09-source/g09/l716.exe)
 Dipole        =-1.04435103D+01 6.06794176D-01 3.01572028D-02
 -------------------------------------------------------------------
 Center     Atomic                   Forces (Hartrees/Bohr)
 Number     Number              X              Y              Z
 -------------------------------------------------------------------
      1        7          -0.005053260    0.036587124   -0.002989509
      2        6           0.017751538   -0.033095848   -0.014897178
      3        6          -0.054003795    0.076079936    0.012591538
      4        6           0.175593926   -0.003661872   -0.019615126
      5        6          -0.006440964   -0.059502084   -0.005530312
      6        6          -0.016997170   -0.017534025    0.007795887
      7        7           0.034128844    0.014092752   -0.002261526
      8        1           0.007080756   -0.046291768   -0.000224073
      9        1          -0.077567136    0.006469482    0.004922238
     10        1          -0.074492739    0.026856304    0.020208062
 -------------------------------------------------------------------
 Cartesian Forces:  Max     0.175593926 RMS     0.046077042
 Z-matrix is all fixed cartesians, so copy forces.
 Force constants in Cartesian coordinates: 
                1             2             3             4             5 
      1  0.608119D+00
      2  0.833303D-01  0.540170D+00
      3 -0.315865D-01  0.123142D-02  0.426467D-01
      4 -0.294298D+00  0.992164D-01  0.322890D-01  0.103197D+01
      5  0.140743D+00 -0.227832D+00 -0.606808D-01 -0.425508D+00  0.205648D+01
      6  0.106450D-01 -0.896885D-02 -0.323242D-01  0.846625D-01 -0.219995D+00
      7  0.187388D-01  0.276346D-01 -0.237553D-02 -0.196795D+00 -0.597732D-01
      8 -0.413252D-02 -0.614731D-02  0.990460D-03 -0.371169D-01 -0.429410D+00
      9 -0.109830D-02 -0.185881D-02  0.563978D-02 -0.146823D-01  0.678487D-01
     10  0.214700D-01 -0.233059D-01 -0.172003D-02  0.258659D-02 -0.534319D-03
     11  0.919023D-02 -0.100640D-01 -0.207091D-02 -0.366986D-01  0.774195D-02
     12 -0.668248D-03  0.110603D-02  0.922162D-02  0.332762D-02 -0.104643D-02
     13 -0.342335D+00 -0.184462D+00  0.194024D-01 -0.136657D-01 -0.200216D-01
     14 -0.229640D+00 -0.335328D+00  0.555881D-02  0.147903D-01  0.217669D-01
     15  0.204978D-01  0.525043D-02 -0.348647D-01  0.119610D-02  0.109709D-02
     16 -0.612078D-02 -0.602516D-02 -0.401920D-01 -0.766034D+00  0.948149D+00
     17  0.158329D-01  0.153079D-01  0.107753D+00  0.949730D+00 -0.299200D+01
     18  0.202317D-02  0.382029D-02 -0.116581D-01 -0.201470D+00  0.481933D+00
     19 -0.407161D-03 -0.215719D-02  0.212829D-01  0.213431D+00 -0.578006D+00
     20  0.110327D-02  0.584526D-02 -0.576694D-01 -0.578353D+00  0.156623D+01
     21 -0.195099D-03 -0.103366D-02  0.101981D-01  0.976917D-01 -0.271248D+00
     22  0.227334D-04  0.911251D-05  0.330217D-03  0.227220D-01 -0.500547D-02
     23  0.994511D-05  0.398642D-05  0.144459D-03  0.140923D-01 -0.311415D-02
     24  0.349722D-03  0.140184D-03  0.507995D-02 -0.252912D-02  0.138254D-02
     25  0.101656D-04 -0.488039D-05  0.106453D-03  0.444675D-04 -0.447624D-04
     26 -0.801641D-05  0.384859D-05 -0.839468D-04 -0.126485D-03  0.127324D-03
     27  0.142653D-03 -0.684863D-04  0.149385D-02 -0.696816D-03  0.701438D-03
     28 -0.520061D-02  0.576471D-02  0.246311D-02  0.352583D-04  0.131529D-05
     29 -0.164290D-01  0.180414D-01  0.482705D-02 -0.260246D-04  0.000000D+00
     30 -0.110288D-03  0.381444D-03  0.456704D-02  0.210754D-03  0.786208D-05
                6             7             8             9            10 
      6  0.217688D+00
      7  0.301730D-02  0.972233D+00
      8  0.201698D-01  0.369683D-02  0.828236D+00
      9 -0.907749D-01  0.229256D-01 -0.608569D-02  0.262716D+00
     10  0.549913D-03 -0.655406D+00 -0.560453D-01 -0.289406D-01  0.100139D+01
     11 -0.697888D-02 -0.239687D-01 -0.200008D+00 -0.162465D-01  0.317536D-01
     12 -0.967990D-02 -0.265837D-01 -0.132600D-01 -0.189076D+00  0.278617D-02
     13  0.448536D-03 -0.263221D-02  0.327618D-01  0.284048D-02 -0.172745D+00
     14  0.248994D-03 -0.107279D-02  0.137378D-01  0.655734D-03  0.806236D-01
     15 -0.480401D-02 -0.685454D-03  0.289506D-02  0.508989D-02  0.156256D-01
     16 -0.198777D+00  0.869095D-02 -0.243279D-03  0.389300D-01  0.159730D-04
     17  0.485458D+00 -0.231799D-01  0.470105D-03 -0.108019D+00 -0.119770D-04
     18 -0.206338D+00  0.172996D-02  0.112910D-02  0.353349D-01 -0.198561D-03
     19  0.100169D+00  0.172166D-02 -0.129095D-02 -0.214020D-01  0.000000D+00
     20 -0.271171D+00 -0.466511D-02  0.349803D-02  0.579922D-01  0.000000D+00
     21  0.898707D-01  0.824967D-03 -0.618584D-03 -0.102552D-01  0.000000D+00
     22 -0.582023D-03 -0.147653D+00  0.764867D-01  0.208387D-02 -0.185821D-02
     23 -0.589017D-03  0.835510D-01 -0.235322D+00 -0.977930D-03 -0.112028D-02
     24  0.194014D-01  0.491888D-02 -0.755537D-02 -0.904680D-01 -0.252284D-02
     25 -0.820299D-03  0.111776D-02 -0.140750D-01 -0.105219D-02 -0.201904D+00
     26  0.233329D-02 -0.222258D-02  0.249454D-01  0.668836D-02 -0.515950D-01
     27  0.128543D-01 -0.369144D-02  0.253538D-02  0.698804D-01  0.140438D-01
     28  0.686978D-03 -0.166727D-04 -0.413774D-04  0.395445D-03  0.645518D-02
     29 -0.507068D-03  0.000000D+00  0.000000D+00  0.318299D-05  0.202355D-01
     30  0.410637D-02 -0.806463D-04 -0.200144D-03  0.191278D-02  0.376499D-03
               11            12            13            14            15 
     11  0.594906D+00
     12  0.463494D-01  0.352059D+00
     13  0.560663D-01  0.116954D-01  0.705536D+00
     14 -0.297116D+00 -0.163393D-01  0.985522D-01  0.700813D+00
     15 -0.213164D-01 -0.625847D-01 -0.661380D-01  0.220317D-01  0.123544D+00
     16 -0.160790D-04 -0.294657D-03 -0.191124D-05  0.000000D+00 -0.372390D-04
     17  0.120565D-04  0.220942D-03 -0.101260D-04  0.000000D+00 -0.197297D-03
     18  0.199878D-03  0.366290D-02  0.999033D-04  0.372685D-05  0.194653D-02
     19  0.000000D+00  0.000000D+00  0.000000D+00  0.000000D+00  0.000000D+00
     20  0.000000D+00  0.000000D+00  0.000000D+00  0.000000D+00  0.000000D+00
     21  0.000000D+00  0.000000D+00  0.000000D+00  0.000000D+00  0.000000D+00
     22  0.248688D-01 -0.471800D-03  0.126985D-04  0.315146D-04 -0.301186D-03
     23  0.152940D-01 -0.739468D-03  0.110463D-04  0.274141D-04 -0.261997D-03
     24  0.822867D-02  0.379430D-01 -0.270258D-03 -0.670713D-03  0.641002D-02
     25 -0.639193D-01  0.982683D-02  0.110674D-01  0.473647D-02 -0.113731D-03
     26 -0.119809D+00 -0.116663D-01 -0.195670D-01 -0.842176D-02  0.752084D-03
     27 -0.755310D-02 -0.150468D+00 -0.130138D-02 -0.124660D-02  0.797440D-02
     28  0.272374D-02  0.382324D-03 -0.185237D+00  0.319785D-01  0.299561D-01
     29  0.904276D-02 -0.462484D-02  0.366695D-01 -0.954781D-01 -0.102507D-01
     30 -0.612142D-03  0.892238D-02  0.332229D-01 -0.102424D-01 -0.427116D-01
               16            17            18            19            20 
     16  0.230593D+01
     17 -0.184214D+01  0.662344D+01
     18  0.418768D+00 -0.109140D+01  0.382487D+00
     19 -0.154251D+01  0.899804D+00 -0.220583D+00  0.132776D+01
     20  0.900264D+00 -0.364723D+01  0.604481D+00 -0.318350D+00  0.207165D+01
     21 -0.218854D+00  0.606533D+00 -0.199745D+00  0.120532D+00 -0.333633D+00
     22  0.297529D-04 -0.223096D-04 -0.369860D-03  0.000000D+00  0.000000D+00
     23  0.130159D-04 -0.975971D-05 -0.161801D-03  0.000000D+00  0.000000D+00
     24  0.457709D-03 -0.343203D-03 -0.568979D-02  0.000000D+00  0.000000D+00
     25  0.000000D+00  0.000000D+00  0.000000D+00  0.000000D+00  0.000000D+00
     26  0.000000D+00  0.000000D+00  0.000000D+00  0.000000D+00  0.000000D+00
     27  0.000000D+00  0.000000D+00  0.000000D+00  0.000000D+00  0.000000D+00
     28  0.000000D+00  0.000000D+00  0.000000D+00  0.000000D+00  0.000000D+00
     29  0.000000D+00  0.000000D+00  0.000000D+00  0.000000D+00  0.000000D+00
     30  0.000000D+00  0.000000D+00  0.000000D+00  0.000000D+00  0.000000D+00
               21            22            23            24            25 
     21  0.109931D+00
     22  0.000000D+00  0.126775D+00
     23  0.000000D+00 -0.965128D-01  0.222994D+00
     24  0.000000D+00 -0.148529D-02  0.189326D-02  0.442659D-01
     25  0.000000D+00 -0.508015D-04 -0.441914D-04  0.108119D-02  0.189744D+00
     26  0.000000D+00  0.144502D-03  0.125700D-03 -0.307537D-02  0.733519D-01
     27  0.000000D+00  0.796071D-03  0.692491D-03 -0.169425D-01 -0.888904D-02
     28  0.000000D+00  0.000000D+00  0.000000D+00  0.000000D+00 -0.287793D-04
     29  0.000000D+00  0.000000D+00  0.000000D+00  0.000000D+00  0.000000D+00
     30  0.000000D+00  0.000000D+00  0.000000D+00  0.000000D+00 -0.139207D-03
               26            27            28            29            30 
     26  0.103028D+00
     27  0.494213D-02  0.771614D-01
     28  0.226949D-04 -0.403859D-03  0.183993D+00
     29  0.000000D+00 -0.325072D-05 -0.404496D-01  0.683950D-01
     30  0.109776D-03 -0.195348D-02 -0.334801D-01  0.105556D-01  0.251565D-01
 Leave Link  716 at Fri May 26 02:44:04 2023, MaxMem= 3276800000 cpu:       0.5
 (Enter /local/g09-source/g09/l103.exe)

 GradGradGradGradGradGradGradGradGradGradGradGradGradGradGradGradGradGrad
 Berny optimization.
 Search for a local minimum.
 Step number   1 out of a maximum of    2
 All quantities printed in internal units (Hartrees-Bohrs-Radians)
 Second derivative matrix not updated -- first step.
     Eigenvalues ---    0.00792   0.01406   0.02644   0.05018   0.06053
     Eigenvalues ---    0.06248   0.10327   0.10836   0.12022   0.16515
     Eigenvalues ---    0.18210   0.22963   0.32451   0.36189   0.46719
     Eigenvalues ---    0.56939   0.62085   0.89074   1.02364   1.24395
     Eigenvalues ---    1.36108   1.71818   2.70463  11.37845
 Quadratic step=1.113D+00 exceeds max=3.000D-01 adjusted using Lamda=-2.659D-01.
 Angle between NR and scaled steps=  41.83 degrees.
 Angle between quadratic step and forces=  35.54 degrees.
 Linear search not attempted -- first point.
 TrRot=  0.016563  0.001010 -0.003507  2.388404 -0.001403 -2.391268
 Variable       Old X    -DE/DX   Delta X   Delta X   Delta X     New X
                                 (Linear)    (Quad)   (Total)
    X1        1.79887  -0.00505   0.00000  -0.03846  -0.02687   1.77200
    Y1       -1.75412   0.03659   0.00000   0.02522   0.02120  -1.73292
    Z1       -0.00464  -0.00299   0.00000  -0.00530  -0.01227  -0.01691
    X2       -0.45691   0.01775   0.00000   0.00768   0.02371  -0.43319
    Y2       -0.21518  -0.03310   0.00000  -0.00015   0.00207  -0.21311
    Z2        0.10819  -0.01490   0.00000  -0.02810  -0.03136   0.07684
    X3        0.11264  -0.05400   0.00000   0.02089   0.04447   0.15710
    Y3        2.38312   0.07608   0.00000   0.05961   0.06020   2.44332
    Z3       -0.00272   0.01259   0.00000   0.02048   0.01917   0.01645
    X4        2.56704   0.17559   0.00000   0.12893   0.15292   2.71996
    Y4        2.56884  -0.00366   0.00000  -0.00638  -0.01320   2.55565
    Z4        0.12020  -0.01962   0.00000  -0.02190  -0.02572   0.09448
    X5        3.67303  -0.00644   0.00000  -0.02680  -0.01058   3.66245
    Y5       -0.02083  -0.05950   0.00000  -0.05723  -0.06657  -0.08740
    Z5       -0.10414  -0.00553   0.00000   0.00247  -0.00486  -0.10900
    X6       -2.97046  -0.01700   0.00000   0.00604   0.01921  -2.95125
    Y6       -1.16840  -0.01753   0.00000  -0.01312  -0.00359  -1.17198
    Z6       -0.03651   0.00780   0.00000   0.00721   0.00561  -0.03090
    X7       -5.04627   0.03413   0.00000   0.03073   0.04169  -5.00458
    Y7       -1.93366   0.01409   0.00000  -0.01920  -0.00379  -1.93745
    Z7       -0.03186  -0.00226   0.00000   0.00002  -0.00021  -0.03208
    X8       -1.03582   0.00708   0.00000  -0.01429   0.01425  -1.02158
    Y8        4.23879  -0.04629   0.00000  -0.07320  -0.06923   4.16955
    Z8        0.01917  -0.00022   0.00000   0.01234   0.01389   0.03306
    X9        4.57237  -0.07757   0.00000  -0.12886  -0.10149   4.47088
    Y9        3.70833   0.00647   0.00000   0.05785   0.04608   3.75441
    Z9        0.04133   0.00492   0.00000  -0.00541  -0.00987   0.03146
   X10        5.91341  -0.07449   0.00000  -0.17135  -0.15730   5.75611
   Y10       -0.72692   0.02686   0.00000   0.04175   0.02681  -0.70011
   Z10       -0.56614   0.02021   0.00000   0.05567   0.04561  -0.52053
         Item               Value     Threshold  Converged?
 Maximum Force            0.175594     0.000450     NO 
 RMS     Force            0.046077     0.000300     NO 
 Maximum Displacement     0.157296     0.001800     NO 
 RMS     Displacement     0.053244     0.001200     NO 
 Predicted change in Energy=-4.277183D-02
 GradGradGradGradGradGradGradGradGradGradGradGradGradGradGradGradGradGrad

 Leave Link  103 at Fri May 26 02:44:04 2023, MaxMem= 3276800000 cpu:       0.2
 (Enter /local/g09-source/g09/l9999.exe)

 Test job not archived.
 1\1\GINC-WUX11\Force\RTD-wB97XD-Full\Gen\C5H3N2(1-)\ISSLERK\26-May-202
 3\0\\#p TD(full,nstates=1,root=1) Force wB97XD/GEN 6D Iop(6/7=3) Iop(9
 /40=14) scf(maxcyc=200,conver=8) nosym Guess(Read) Geom=AllCheck\\Comm
 ent\\-1,1\N,0.951920169,-0.928238497,-0.002453267\C,-0.241784017,-0.11
 3870379,0.057252856\C,0.059605242,1.261091258,-0.001438642\C,1.3584200
 42,1.359373293,0.06360549\C,1.943683768,-0.011022595,-0.055110355\C,-1
 .571897921,-0.61829006,-0.019320426\N,-2.670371841,-1.023247108,-0.016
 861474\H,-0.548132898,2.243069053,0.010142163\H,2.419596166,1.96236513
 4,0.021870451\H,3.129240019,-0.384669442,-0.299588149\\Version=EM64L-G
 09RevA.02\HF=-301.7574729\RMSD=6.040e-09\RMSF=4.608e-02\Dipole=-10.352
 6545,0.6640511,0.0248159\PG=C01 [X(C5H3N2)]\\@


 MAN IS A SINGULAR CREATURE.  HE HAS A SET OF GIFTS
 WHICH MAKE HIM UNIQUE AMONG THE ANIMALS: SO THAT, 
 UNLIKE THEM, HE IS NOT A FIGURE IN THE LANDSCAPE --
 HE IS A SHAPER OF THE LANDSCAPE.

                       -- JACOB BRONOWSKI
 Job cpu time:  0 days  0 hours 54 minutes  6.1 seconds.
 File lengths (MBytes):  RWF=     52 Int=      0 D2E=      0 Chk=      6 Scr=      1
 Normal termination of Gaussian 09 at Fri May 26 02:44:04 2023.
