 Entering Gaussian System, Link 0=g09
 Input=anDecay.in
 Output=anDecay.log
 Initial command:
 /local/g09-source/g09/l1.exe /scratch/1505212/TRAJ_40/Gau-19537.inp -scrdir=/scratch/1505212/TRAJ_40/
 Entering Link 1 = /local/g09-source/g09/l1.exe PID=     19540.
  
 Copyright (c) 1988,1990,1992,1993,1995,1998,2003,2009, Gaussian, Inc.
                  All Rights Reserved.
  
 This is part of the Gaussian(R) 09 program.  It is based on
 the Gaussian(R) 03 system (copyright 2003, Gaussian, Inc.),
 the Gaussian(R) 98 system (copyright 1998, Gaussian, Inc.),
 the Gaussian(R) 94 system (copyright 1995, Gaussian, Inc.),
 the Gaussian 92(TM) system (copyright 1992, Gaussian, Inc.),
 the Gaussian 90(TM) system (copyright 1990, Gaussian, Inc.),
 the Gaussian 88(TM) system (copyright 1988, Gaussian, Inc.),
 the Gaussian 86(TM) system (copyright 1986, Carnegie Mellon
 University), and the Gaussian 82(TM) system (copyright 1983,
 Carnegie Mellon University). Gaussian is a federally registered
 trademark of Gaussian, Inc.
  
 This software contains proprietary and confidential information,
 including trade secrets, belonging to Gaussian, Inc.
  
 This software is provided under written license and may be
 used, copied, transmitted, or stored only in accord with that
 written license.
  
 The following legend is applicable only to US Government
 contracts under FAR:
  
                    RESTRICTED RIGHTS LEGEND
  
 Use, reproduction and disclosure by the US Government is
 subject to restrictions as set forth in subparagraphs (a)
 and (c) of the Commercial Computer Software - Restricted
 Rights clause in FAR 52.227-19.
  
 Gaussian, Inc.
 340 Quinnipiac St., Bldg. 40, Wallingford CT 06492
  
  
 ---------------------------------------------------------------
 Warning -- This program may not be used in any manner that
 competes with the business of Gaussian, Inc. or will provide
 assistance to any competitor of Gaussian, Inc.  The licensee
 of this program is prohibited from giving any competitor of
 Gaussian, Inc. access to this program.  By using this program,
 the user acknowledges that Gaussian, Inc. is engaged in the
 business of creating and licensing software in the field of
 computational chemistry and represents and warrants to the
 licensee that it is not a competitor of Gaussian, Inc. and that
 it will not use this program in any manner prohibited above.
 ---------------------------------------------------------------
  

 Cite this work as:
 Gaussian 09, Revision A.02,
 M. J. Frisch, G. W. Trucks, H. B. Schlegel, G. E. Scuseria, 
 M. A. Robb, J. R. Cheeseman, G. Scalmani, V. Barone, B. Mennucci, 
 G. A. Petersson, H. Nakatsuji, M. Caricato, X. Li, H. P. Hratchian, 
 A. F. Izmaylov, J. Bloino, G. Zheng, J. L. Sonnenberg, M. Hada, 
 M. Ehara, K. Toyota, R. Fukuda, J. Hasegawa, M. Ishida, T. Nakajima, 
 Y. Honda, O. Kitao, H. Nakai, T. Vreven, J. A. Montgomery, Jr., 
 J. E. Peralta, F. Ogliaro, M. Bearpark, J. J. Heyd, E. Brothers, 
 K. N. Kudin, V. N. Staroverov, R. Kobayashi, J. Normand, 
 K. Raghavachari, A. Rendell, J. C. Burant, S. S. Iyengar, J. Tomasi, 
 M. Cossi, N. Rega, J. M. Millam, M. Klene, J. E. Knox, J. B. Cross, 
 V. Bakken, C. Adamo, J. Jaramillo, R. Gomperts, R. E. Stratmann, 
 O. Yazyev, A. J. Austin, R. Cammi, C. Pomelli, J. W. Ochterski, 
 R. L. Martin, K. Morokuma, V. G. Zakrzewski, G. A. Voth, 
 P. Salvador, J. J. Dannenberg, S. Dapprich, A. D. Daniels, 
 O. Farkas, J. B. Foresman, J. V. Ortiz, J. Cioslowski, 
 and D. J. Fox, Gaussian, Inc., Wallingford CT, 2009.
 
 ******************************************
 Gaussian 09:  EM64L-G09RevA.02 11-Jun-2009
                25-May-2023 
 ******************************************
 %Chk=anDecay.chk
 %Nproc=10
 Will use up to   10 processors via shared memory.
 %Mem=25000Mb
 ----------------------------------------------------------------------
 #p TD(nstates=1) wB97XD/GEN 6D Iop(6/7=3) Iop(9/40=14) scf(maxcyc=200,
 conver=8) nosym Guess(Read,TCheck) GFInput Pop=(minimal,nto,savento) D
 ensity=(transition=1)
 ----------------------------------------------------------------------
 1/38=1/1;
 2/12=2,15=1,17=6,18=5,40=1/2;
 3/5=7,8=2,11=2,16=1,24=10,25=1,30=1,74=-58/1,2,8,3;
 4/5=102/1;
 5/5=2,6=8,7=200/2;
 8/6=1,10=1,108=1/1;
 9/40=14,41=1,42=1/14;
 6/7=3,8=2,9=2,10=2,29=1,89=11/1;
 99/5=1,9=1/99;
 Leave Link    1 at Thu May 25 09:17:29 2023, MaxMem= 3276800000 cpu:       0.8
 (Enter /local/g09-source/g09/l101.exe)
 -------
 Comment
 -------
 Symbolic Z-matrix:
 Charge = -1 Multiplicity = 1
 N                     0.93959  -0.84422  -0.05931 
 C                    -0.24514  -0.12427   0.11285 
 C                     0.07129   1.26909  -0.00496 
 C                     1.49856   1.31051   0.01078 
 C                     1.87982  -0.04073  -0.0297 
 C                    -1.53936  -0.7209   -0.0393 
 N                    -2.69359  -0.97613   0.00093 
 H                    -0.71681   2.14018  -0.09484 
 H                     1.76016   2.43761   0.39566 
 H                     3.05571  -0.39181  -0.0814 
 
 NAtoms=     10 NQM=     10 NQMF=      0 NMic=      0 NMicF=      0 NTot=     10.
                    Isotopes and Nuclear Properties:
 (Nuclear quadrupole moments (NQMom) in fm**2, nuclear magnetic moments (NMagM)
  in nuclear magnetons)

  Atom         1           2           3           4           5           6           7           8           9          10
 IAtWgt=          14          12          12          12          12          12          14           1           1           1
 AtmWgt=  14.0030740  12.0000000  12.0000000  12.0000000  12.0000000  12.0000000  14.0030740   1.0078250   1.0078250   1.0078250
 NucSpn=           2           0           0           0           0           0           2           1           1           1
 AtZEff=   0.0000000   0.0000000   0.0000000   0.0000000   0.0000000   0.0000000   0.0000000   0.0000000   0.0000000   0.0000000
 NQMom=    2.0440000   0.0000000   0.0000000   0.0000000   0.0000000   0.0000000   2.0440000   0.0000000   0.0000000   0.0000000
 NMagM=    0.4037610   0.0000000   0.0000000   0.0000000   0.0000000   0.0000000   0.4037610   2.7928460   2.7928460   2.7928460
 Leave Link  101 at Thu May 25 09:17:29 2023, MaxMem= 3276800000 cpu:       0.9
 (Enter /local/g09-source/g09/l202.exe)
                          Input orientation:                          
 ---------------------------------------------------------------------
 Center     Atomic      Atomic             Coordinates (Angstroms)
 Number     Number       Type             X           Y           Z
 ---------------------------------------------------------------------
      1          7           0        0.939594   -0.844224   -0.059309
      2          6           0       -0.245141   -0.124275    0.112849
      3          6           0        0.071291    1.269090   -0.004959
      4          6           0        1.498555    1.310507    0.010779
      5          6           0        1.879817   -0.040733   -0.029699
      6          6           0       -1.539364   -0.720896   -0.039298
      7          7           0       -2.693594   -0.976127    0.000934
      8          1           0       -0.716813    2.140184   -0.094838
      9          1           0        1.760160    2.437613    0.395660
     10          1           0        3.055705   -0.391813   -0.081398
 ---------------------------------------------------------------------
                    Distance matrix (angstroms):
                    1          2          3          4          5
     1  N    0.000000
     2  C    1.396983   0.000000
     3  C    2.285388   1.433692   0.000000
     4  C    2.227154   2.260419   1.427952   0.000000
     5  C    1.237131   2.131372   2.233163   1.404581   0.000000
     6  C    2.482104   1.433219   2.560357   3.654867   3.486188
     7  N    3.636081   2.594822   3.561688   4.775239   4.668189
     8  H    3.413450   2.322366   1.178130   2.367990   3.391627
     9  H    3.413324   3.265652   2.092420   1.219401   2.517429
    10  H    2.164045   3.317363   3.416310   2.308919   1.228268
                    6          7          8          9         10
     6  C    0.000000
     7  N    1.182797   0.000000
     8  H    2.977491   3.691644   0.000000
     9  H    4.588270   5.625421   2.542528   0.000000
    10  H    4.607030   5.779502   4.543466   3.148281   0.000000
 Symmetry turned off by external request.
 Stoichiometry    C5H3N2(1-)
 Framework group  C1[X(C5H3N2)]
 Deg. of freedom    24
 Full point group                 C1      NOp   1
 Rotational constants (GHZ):      8.9916060      2.0168454      1.6510920
 Leave Link  202 at Thu May 25 09:17:29 2023, MaxMem= 3276800000 cpu:       0.0
 (Enter /local/g09-source/g09/l301.exe)
 General basis read from cards:  (6D, 7F)
 Centers:   8  9 10
 S 3 1.0
     Exponent=  3.3865000000D+01 Coefficients=  2.5493800000D-02
     Exponent=  5.0947900000D+00 Coefficients=  1.9037300000D-01
     Exponent=  1.1587900000D+00 Coefficients=  8.5216100000D-01
 S 1 1.0
     Exponent=  3.2584000000D-01 Coefficients=  1.0000000000D+00
 S 1 1.0
     Exponent=  1.0274100000D-01 Coefficients=  1.0000000000D+00
 S 1 1.0
     Exponent=  3.6000000000D-02 Coefficients=  1.0000000000D+00
 P 1 1.0
     Exponent=  7.5000000000D-01 Coefficients=  1.0000000000D+00
 ****
 Centers:   2  3  4  5  6
 S 6 1.0
     Exponent=  4.5632400000D+03 Coefficients=  1.9666500000D-03
     Exponent=  6.8202400000D+02 Coefficients=  1.5230600000D-02
     Exponent=  1.5497300000D+02 Coefficients=  7.6126900000D-02
     Exponent=  4.4455300000D+01 Coefficients=  2.6080100000D-01
     Exponent=  1.3029000000D+01 Coefficients=  6.1646200000D-01
     Exponent=  1.8277300000D+00 Coefficients=  2.2100600000D-01
 S 3 1.0
     Exponent=  2.0964200000D+01 Coefficients=  1.1466000000D-01
     Exponent=  4.8033100000D+00 Coefficients=  9.1999900000D-01
     Exponent=  1.4593300000D+00 Coefficients= -3.0306800000D-03
 S 1 1.0
     Exponent=  4.8345600000D-01 Coefficients=  1.0000000000D+00
 S 1 1.0
     Exponent=  1.4558500000D-01 Coefficients=  1.0000000000D+00
 S 1 1.0
     Exponent=  4.3800000000D-02 Coefficients=  1.0000000000D+00
 P 3 1.0
     Exponent=  2.0964200000D+01 Coefficients=  4.0248700000D-02
     Exponent=  4.8033100000D+00 Coefficients=  2.3759400000D-01
     Exponent=  1.4593300000D+00 Coefficients=  8.1585400000D-01
 P 1 1.0
     Exponent=  4.8345600000D-01 Coefficients=  1.0000000000D+00
 P 1 1.0
     Exponent=  1.4558500000D-01 Coefficients=  1.0000000000D+00
 P 1 1.0
     Exponent=  4.3800000000D-02 Coefficients=  1.0000000000D+00
 D 1 1.0
     Exponent=  6.2600000000D-01 Coefficients=  1.0000000000D+00
 ****
 Centers:   1  7
 S 6 1.0
     Exponent=  6.2934800000D+03 Coefficients=  1.9697900000D-03
     Exponent=  9.4904400000D+02 Coefficients=  1.4961300000D-02
     Exponent=  2.1877600000D+02 Coefficients=  7.3500600000D-02
     Exponent=  6.3691600000D+01 Coefficients=  2.4893700000D-01
     Exponent=  1.8828200000D+01 Coefficients=  6.0246000000D-01
     Exponent=  2.7202300000D+00 Coefficients=  2.5620200000D-01
 S 3 1.0
     Exponent=  3.0633100000D+01 Coefficients=  1.1190600000D-01
     Exponent=  7.0261400000D+00 Coefficients=  9.2166600000D-01
     Exponent=  2.1120500000D+00 Coefficients= -2.5691900000D-03
 S 1 1.0
     Exponent=  6.8400900000D-01 Coefficients=  1.0000000000D+00
 S 1 1.0
     Exponent=  2.0087800000D-01 Coefficients=  1.0000000000D+00
 S 1 1.0
     Exponent=  6.3900000000D-02 Coefficients=  1.0000000000D+00
 S 1 1.0
     Exponent=  1.8257143000D-02 Coefficients=  1.0000000000D+00
 S 1 1.0
     Exponent=  5.2163270000D-03 Coefficients=  1.0000000000D+00
 S 1 1.0
     Exponent=  1.4903790000D-03 Coefficients=  1.0000000000D+00
 P 3 1.0
     Exponent=  3.0633100000D+01 Coefficients=  3.8311900000D-02
     Exponent=  7.0261400000D+00 Coefficients=  2.3740300000D-01
     Exponent=  2.1120500000D+00 Coefficients=  8.1759200000D-01
 P 1 1.0
     Exponent=  6.8400900000D-01 Coefficients=  1.0000000000D+00
 P 1 1.0
     Exponent=  2.0087800000D-01 Coefficients=  1.0000000000D+00
 P 1 1.0
     Exponent=  6.3900000000D-02 Coefficients=  1.0000000000D+00
 P 1 1.0
     Exponent=  1.8257143000D-02 Coefficients=  1.0000000000D+00
 P 1 1.0
     Exponent=  5.2163270000D-03 Coefficients=  1.0000000000D+00
 D 1 1.0
     Exponent=  9.1300000000D-01 Coefficients=  1.0000000000D+00
 ****
 Ernie: Thresh=  0.10000D-02 Tol=  0.10000D-05 Strict=F.
 AO basis set in the form of general basis input (Overlap normalization):
      1 0
 S   6 1.00       0.000000000000
      0.6293480000D+04  0.1969788147D-02
      0.9490440000D+03  0.1496128592D-01
      0.2187760000D+03  0.7350053084D-01
      0.6369160000D+02  0.2489367658D+00
      0.1882820000D+02  0.6024594331D+00
      0.2720230000D+01  0.2562017589D+00
 S   3 1.00       0.000000000000
      0.3063310000D+02  0.1119060795D+00
      0.7026140000D+01  0.9216666549D+00
      0.2112050000D+01 -0.2569191826D-02
 S   1 1.00       0.000000000000
      0.6840090000D+00  0.1000000000D+01
 S   1 1.00       0.000000000000
      0.2008780000D+00  0.1000000000D+01
 S   1 1.00       0.000000000000
      0.6390000000D-01  0.1000000000D+01
 S   1 1.00       0.000000000000
      0.1825714300D-01  0.1000000000D+01
 S   1 1.00       0.000000000000
      0.5216327000D-02  0.1000000000D+01
 S   1 1.00       0.000000000000
      0.1490379000D-02  0.1000000000D+01
 P   3 1.00       0.000000000000
      0.3063310000D+02  0.3831191864D-01
      0.7026140000D+01  0.2374031155D+00
      0.2112050000D+01  0.8175923978D+00
 P   1 1.00       0.000000000000
      0.6840090000D+00  0.1000000000D+01
 P   1 1.00       0.000000000000
      0.2008780000D+00  0.1000000000D+01
 P   1 1.00       0.000000000000
      0.6390000000D-01  0.1000000000D+01
 P   1 1.00       0.000000000000
      0.1825714300D-01  0.1000000000D+01
 P   1 1.00       0.000000000000
      0.5216327000D-02  0.1000000000D+01
 D   1 1.00       0.000000000000
      0.9130000000D+00  0.1000000000D+01
 ****
      2 0
 S   6 1.00       0.000000000000
      0.4563240000D+04  0.1966650249D-02
      0.6820240000D+03  0.1523060193D-01
      0.1549730000D+03  0.7612690966D-01
      0.4445530000D+02  0.2608010331D+00
      0.1302900000D+02  0.6164620782D+00
      0.1827730000D+01  0.2210060280D+00
 S   3 1.00       0.000000000000
      0.2096420000D+02  0.1146600807D+00
      0.4803310000D+01  0.9199996477D+00
      0.1459330000D+01 -0.3030682134D-02
 S   1 1.00       0.000000000000
      0.4834560000D+00  0.1000000000D+01
 S   1 1.00       0.000000000000
      0.1455850000D+00  0.1000000000D+01
 S   1 1.00       0.000000000000
      0.4380000000D-01  0.1000000000D+01
 P   3 1.00       0.000000000000
      0.2096420000D+02  0.4024869267D-01
      0.4803310000D+01  0.2375939567D+00
      0.1459330000D+01  0.8158538515D+00
 P   1 1.00       0.000000000000
      0.4834560000D+00  0.1000000000D+01
 P   1 1.00       0.000000000000
      0.1455850000D+00  0.1000000000D+01
 P   1 1.00       0.000000000000
      0.4380000000D-01  0.1000000000D+01
 D   1 1.00       0.000000000000
      0.6260000000D+00  0.1000000000D+01
 ****
      3 0
 S   6 1.00       0.000000000000
      0.4563240000D+04  0.1966650249D-02
      0.6820240000D+03  0.1523060193D-01
      0.1549730000D+03  0.7612690966D-01
      0.4445530000D+02  0.2608010331D+00
      0.1302900000D+02  0.6164620782D+00
      0.1827730000D+01  0.2210060280D+00
 S   3 1.00       0.000000000000
      0.2096420000D+02  0.1146600807D+00
      0.4803310000D+01  0.9199996477D+00
      0.1459330000D+01 -0.3030682134D-02
 S   1 1.00       0.000000000000
      0.4834560000D+00  0.1000000000D+01
 S   1 1.00       0.000000000000
      0.1455850000D+00  0.1000000000D+01
 S   1 1.00       0.000000000000
      0.4380000000D-01  0.1000000000D+01
 P   3 1.00       0.000000000000
      0.2096420000D+02  0.4024869267D-01
      0.4803310000D+01  0.2375939567D+00
      0.1459330000D+01  0.8158538515D+00
 P   1 1.00       0.000000000000
      0.4834560000D+00  0.1000000000D+01
 P   1 1.00       0.000000000000
      0.1455850000D+00  0.1000000000D+01
 P   1 1.00       0.000000000000
      0.4380000000D-01  0.1000000000D+01
 D   1 1.00       0.000000000000
      0.6260000000D+00  0.1000000000D+01
 ****
      4 0
 S   6 1.00       0.000000000000
      0.4563240000D+04  0.1966650249D-02
      0.6820240000D+03  0.1523060193D-01
      0.1549730000D+03  0.7612690966D-01
      0.4445530000D+02  0.2608010331D+00
      0.1302900000D+02  0.6164620782D+00
      0.1827730000D+01  0.2210060280D+00
 S   3 1.00       0.000000000000
      0.2096420000D+02  0.1146600807D+00
      0.4803310000D+01  0.9199996477D+00
      0.1459330000D+01 -0.3030682134D-02
 S   1 1.00       0.000000000000
      0.4834560000D+00  0.1000000000D+01
 S   1 1.00       0.000000000000
      0.1455850000D+00  0.1000000000D+01
 S   1 1.00       0.000000000000
      0.4380000000D-01  0.1000000000D+01
 P   3 1.00       0.000000000000
      0.2096420000D+02  0.4024869267D-01
      0.4803310000D+01  0.2375939567D+00
      0.1459330000D+01  0.8158538515D+00
 P   1 1.00       0.000000000000
      0.4834560000D+00  0.1000000000D+01
 P   1 1.00       0.000000000000
      0.1455850000D+00  0.1000000000D+01
 P   1 1.00       0.000000000000
      0.4380000000D-01  0.1000000000D+01
 D   1 1.00       0.000000000000
      0.6260000000D+00  0.1000000000D+01
 ****
      5 0
 S   6 1.00       0.000000000000
      0.4563240000D+04  0.1966650249D-02
      0.6820240000D+03  0.1523060193D-01
      0.1549730000D+03  0.7612690966D-01
      0.4445530000D+02  0.2608010331D+00
      0.1302900000D+02  0.6164620782D+00
      0.1827730000D+01  0.2210060280D+00
 S   3 1.00       0.000000000000
      0.2096420000D+02  0.1146600807D+00
      0.4803310000D+01  0.9199996477D+00
      0.1459330000D+01 -0.3030682134D-02
 S   1 1.00       0.000000000000
      0.4834560000D+00  0.1000000000D+01
 S   1 1.00       0.000000000000
      0.1455850000D+00  0.1000000000D+01
 S   1 1.00       0.000000000000
      0.4380000000D-01  0.1000000000D+01
 P   3 1.00       0.000000000000
      0.2096420000D+02  0.4024869267D-01
      0.4803310000D+01  0.2375939567D+00
      0.1459330000D+01  0.8158538515D+00
 P   1 1.00       0.000000000000
      0.4834560000D+00  0.1000000000D+01
 P   1 1.00       0.000000000000
      0.1455850000D+00  0.1000000000D+01
 P   1 1.00       0.000000000000
      0.4380000000D-01  0.1000000000D+01
 D   1 1.00       0.000000000000
      0.6260000000D+00  0.1000000000D+01
 ****
      6 0
 S   6 1.00       0.000000000000
      0.4563240000D+04  0.1966650249D-02
      0.6820240000D+03  0.1523060193D-01
      0.1549730000D+03  0.7612690966D-01
      0.4445530000D+02  0.2608010331D+00
      0.1302900000D+02  0.6164620782D+00
      0.1827730000D+01  0.2210060280D+00
 S   3 1.00       0.000000000000
      0.2096420000D+02  0.1146600807D+00
      0.4803310000D+01  0.9199996477D+00
      0.1459330000D+01 -0.3030682134D-02
 S   1 1.00       0.000000000000
      0.4834560000D+00  0.1000000000D+01
 S   1 1.00       0.000000000000
      0.1455850000D+00  0.1000000000D+01
 S   1 1.00       0.000000000000
      0.4380000000D-01  0.1000000000D+01
 P   3 1.00       0.000000000000
      0.2096420000D+02  0.4024869267D-01
      0.4803310000D+01  0.2375939567D+00
      0.1459330000D+01  0.8158538515D+00
 P   1 1.00       0.000000000000
      0.4834560000D+00  0.1000000000D+01
 P   1 1.00       0.000000000000
      0.1455850000D+00  0.1000000000D+01
 P   1 1.00       0.000000000000
      0.4380000000D-01  0.1000000000D+01
 D   1 1.00       0.000000000000
      0.6260000000D+00  0.1000000000D+01
 ****
      7 0
 S   6 1.00       0.000000000000
      0.6293480000D+04  0.1969788147D-02
      0.9490440000D+03  0.1496128592D-01
      0.2187760000D+03  0.7350053084D-01
      0.6369160000D+02  0.2489367658D+00
      0.1882820000D+02  0.6024594331D+00
      0.2720230000D+01  0.2562017589D+00
 S   3 1.00       0.000000000000
      0.3063310000D+02  0.1119060795D+00
      0.7026140000D+01  0.9216666549D+00
      0.2112050000D+01 -0.2569191826D-02
 S   1 1.00       0.000000000000
      0.6840090000D+00  0.1000000000D+01
 S   1 1.00       0.000000000000
      0.2008780000D+00  0.1000000000D+01
 S   1 1.00       0.000000000000
      0.6390000000D-01  0.1000000000D+01
 S   1 1.00       0.000000000000
      0.1825714300D-01  0.1000000000D+01
 S   1 1.00       0.000000000000
      0.5216327000D-02  0.1000000000D+01
 S   1 1.00       0.000000000000
      0.1490379000D-02  0.1000000000D+01
 P   3 1.00       0.000000000000
      0.3063310000D+02  0.3831191864D-01
      0.7026140000D+01  0.2374031155D+00
      0.2112050000D+01  0.8175923978D+00
 P   1 1.00       0.000000000000
      0.6840090000D+00  0.1000000000D+01
 P   1 1.00       0.000000000000
      0.2008780000D+00  0.1000000000D+01
 P   1 1.00       0.000000000000
      0.6390000000D-01  0.1000000000D+01
 P   1 1.00       0.000000000000
      0.1825714300D-01  0.1000000000D+01
 P   1 1.00       0.000000000000
      0.5216327000D-02  0.1000000000D+01
 D   1 1.00       0.000000000000
      0.9130000000D+00  0.1000000000D+01
 ****
      8 0
 S   3 1.00       0.000000000000
      0.3386500000D+02  0.2549381454D-01
      0.5094790000D+01  0.1903731086D+00
      0.1158790000D+01  0.8521614860D+00
 S   1 1.00       0.000000000000
      0.3258400000D+00  0.1000000000D+01
 S   1 1.00       0.000000000000
      0.1027410000D+00  0.1000000000D+01
 S   1 1.00       0.000000000000
      0.3600000000D-01  0.1000000000D+01
 P   1 1.00       0.000000000000
      0.7500000000D+00  0.1000000000D+01
 ****
      9 0
 S   3 1.00       0.000000000000
      0.3386500000D+02  0.2549381454D-01
      0.5094790000D+01  0.1903731086D+00
      0.1158790000D+01  0.8521614860D+00
 S   1 1.00       0.000000000000
      0.3258400000D+00  0.1000000000D+01
 S   1 1.00       0.000000000000
      0.1027410000D+00  0.1000000000D+01
 S   1 1.00       0.000000000000
      0.3600000000D-01  0.1000000000D+01
 P   1 1.00       0.000000000000
      0.7500000000D+00  0.1000000000D+01
 ****
     10 0
 S   3 1.00       0.000000000000
      0.3386500000D+02  0.2549381454D-01
      0.5094790000D+01  0.1903731086D+00
      0.1158790000D+01  0.8521614860D+00
 S   1 1.00       0.000000000000
      0.3258400000D+00  0.1000000000D+01
 S   1 1.00       0.000000000000
      0.1027410000D+00  0.1000000000D+01
 S   1 1.00       0.000000000000
      0.3600000000D-01  0.1000000000D+01
 P   1 1.00       0.000000000000
      0.7500000000D+00  0.1000000000D+01
 ****

 Integral buffers will be    131072 words long.
 Raffenetti 2 integral format.
 Two-electron integral symmetry is turned off.
   200 basis functions,   297 primitive gaussians,   200 cartesian basis functions
    24 alpha electrons       24 beta electrons
       nuclear repulsion energy       237.8394060852 Hartrees.
 IExCor= 4639 DFT=T Ex+Corr=wB97XD ExCW=0 ScaHFX=  1.000000
 ScaDFX=  1.000000  1.000000  1.000000  1.000000 ScalE2=  1.000000  1.000000
 IRadAn=      0 IRanWt=     -1 IRanGd=            0 ICorTp=0
  HFx wShort=  0.000000 wLong=  0.200000 cFull=  0.222036 cShort=  0.000000 cLong=  0.777964
  DFx wShort=  0.000000 wLong=  0.200000 cFull=  0.000000 cShort=  0.000000 cLong=  1.000000
 NAtoms=   10 NActive=   10 NUniq=   10 SFac= 7.50D-01 NAtFMM=   80 NAOKFM=F Big=F
 R6Disp: Dispersion energy =        -0.0030423003 Hartrees.
 Nuclear repulsion after empirical dispersion term =      237.8363637849 Hartrees.
 Leave Link  301 at Thu May 25 09:17:30 2023, MaxMem= 3276800000 cpu:       0.5
 (Enter /local/g09-source/g09/l302.exe)
 NPDir=0 NMtPBC=     1 NCelOv=     1 NCel=       1 NClECP=     1 NCelD=      1
         NCelK=      1 NCelE2=     1 NClLst=     1 CellRange=     0.0.
 One-electron integrals computed using PRISM.
 NBasis=   200 RedAO= T  NBF=   200
 NBsUse=   200 1.00D-06 NBFU=   200
 Precomputing XC quadrature grid using
 IXCGrd= 2 IRadAn=           0 IRanWt=          -1 IRanGd=           0 AccXCQ= 1.00D-10.
 NRdTot=     695 NPtTot=       89148 NUsed=       94156 NTot=       94188
 NSgBfM=   200   200   200   200   200 NAtAll=    10    10.
 Leave Link  302 at Thu May 25 09:17:30 2023, MaxMem= 3276800000 cpu:       2.3
 (Enter /local/g09-source/g09/l308.exe)
 Leave Link  308 at Thu May 25 09:17:30 2023, MaxMem= 3276800000 cpu:       0.5
 (Enter /local/g09-source/g09/l303.exe)
 DipDrv:  MaxL=1.
 Leave Link  303 at Thu May 25 09:17:30 2023, MaxMem= 3276800000 cpu:       0.4
 (Enter /local/g09-source/g09/l401.exe)
 Initial guess read from the checkpoint file:  anDecay.chk
 B after Tr=    -0.006582    0.005049   -0.002289
         Rot=    0.999997   -0.001146    0.000270   -0.002060 Ang=   0.27 deg.
 Guess basis will be translated and rotated to current coordinates.
 Leave Link  401 at Thu May 25 09:17:30 2023, MaxMem= 3276800000 cpu:       1.7
 (Enter /local/g09-source/g09/l502.exe)
 Closed shell SCF:
 Requested convergence on RMS density matrix=1.00D-08 within 200 cycles.
 Requested convergence on MAX density matrix=1.00D-06.
 Requested convergence on             energy=1.00D-06.
 No special actions if energy rises.
 Using DIIS extrapolation, IDIIS=  1040.
 Two-electron integral symmetry not used.
        94053 words used for storage of precomputed grid.
 IEnd=      259395 IEndB=      259395 NGot=  3276800000 MDV=  3276621206
 LenX=  3276621206 LenY=  3276580765
 Fock matrices will be formed incrementally for  20 cycles.

 Cycle   1  Pass 1  IDiag  1:
 FoFJK:  IHMeth= 1 ICntrl=     0 DoSepK=T KAlg= 1 I1Cent= 0 FoldK=F
 FoFCou: FMM=F IPFlag=           0 FMFlag=      100000 FMFlg1=           0
         NFxFlg=           0 DoJE=T BraDBF=F KetDBF=F FulRan=T
         Omega=  0.000000  0.000000  1.000000  0.000000  0.000000 ICntrl=     500 IOpCl=  0
         NMat0=    1 NMatS0=    1 NMatT0=    0 NMatD0=    1 NMtDS0=    0 NMtDT0=    0
         I1Cent=           0 NGrid=           0.
 Symmetry not used in FoFCou.
 E= -301.670217450247    
 DIIS: error= 1.30D-02 at cycle   1 NSaved=   1.
 NSaved= 1 IEnMin= 1 EnMin= -301.670217450247     IErMin= 1 ErrMin= 1.30D-02
 ErrMax= 1.30D-02 EMaxC= 1.00D-01 BMatC= 6.95D-02 BMatP= 6.95D-02
 IDIUse=3 WtCom= 8.70D-01 WtEn= 1.30D-01
 Coeff-Com:  0.100D+01
 Coeff-En:   0.100D+01
 Coeff:      0.100D+01
 Gap=     0.180 Goal=   None    Shift=    0.000
 GapD=    0.180 DampG=1.000 DampE=0.500 DampFc=0.5000 IDamp=-1.
 Damping current iteration by 5.00D-01
 RMSDP=2.42D-02 MaxDP=1.72D+00              OVMax= 7.48D-02

 Cycle   2  Pass 1  IDiag  1:
 RMSU=  5.61D-03    CP:  8.20D-01
 FoFJK:  IHMeth= 1 ICntrl=     0 DoSepK=T KAlg= 1 I1Cent= 0 FoldK=F
 E= -301.714264650208     Delta-E=       -0.044047199960 Rises=F Damp=T
 DIIS: error= 7.61D-03 at cycle   2 NSaved=   2.
 NSaved= 2 IEnMin= 2 EnMin= -301.714264650208     IErMin= 2 ErrMin= 7.61D-03
 ErrMax= 7.61D-03 EMaxC= 1.00D-01 BMatC= 2.10D-02 BMatP= 6.95D-02
 IDIUse=3 WtCom= 9.24D-01 WtEn= 7.61D-02
 Coeff-Com: -0.988D+00 0.199D+01
 Coeff-En:   0.000D+00 0.100D+01
 Coeff:     -0.913D+00 0.191D+01
 Gap=     0.149 Goal=   None    Shift=    0.000
 RMSDP=1.30D-02 MaxDP=6.57D-01 DE=-4.40D-02 OVMax= 4.01D-02

 Cycle   3  Pass 1  IDiag  1:
 RMSU=  3.46D-03    CP:  6.51D-01  2.08D+00
 FoFJK:  IHMeth= 1 ICntrl=     0 DoSepK=T KAlg= 1 I1Cent= 0 FoldK=F
 E= -301.767887450982     Delta-E=       -0.053622800774 Rises=F Damp=F
 DIIS: error= 5.31D-03 at cycle   3 NSaved=   3.
 NSaved= 3 IEnMin= 3 EnMin= -301.767887450982     IErMin= 3 ErrMin= 5.31D-03
 ErrMax= 5.31D-03 EMaxC= 1.00D-01 BMatC= 3.63D-03 BMatP= 2.10D-02
 IDIUse=3 WtCom= 9.47D-01 WtEn= 5.31D-02
 Coeff-Com: -0.546D+00 0.956D+00 0.590D+00
 Coeff-En:   0.000D+00 0.000D+00 0.100D+01
 Coeff:     -0.517D+00 0.905D+00 0.611D+00
 Gap=     0.152 Goal=   None    Shift=    0.000
 RMSDP=2.60D-03 MaxDP=2.39D-01 DE=-5.36D-02 OVMax= 2.64D-02

 Cycle   4  Pass 1  IDiag  1:
 RMSU=  1.19D-03    CP:  6.77D-01  2.04D+00  1.30D+00
 FoFJK:  IHMeth= 1 ICntrl=     0 DoSepK=T KAlg= 1 I1Cent= 0 FoldK=F
 E= -301.771482926434     Delta-E=       -0.003595475452 Rises=F Damp=F
 DIIS: error= 1.16D-03 at cycle   4 NSaved=   4.
 NSaved= 4 IEnMin= 4 EnMin= -301.771482926434     IErMin= 4 ErrMin= 1.16D-03
 ErrMax= 1.16D-03 EMaxC= 1.00D-01 BMatC= 2.90D-04 BMatP= 3.63D-03
 IDIUse=3 WtCom= 9.88D-01 WtEn= 1.16D-02
 Coeff-Com: -0.622D-01 0.858D-01 0.229D+00 0.747D+00
 Coeff-En:   0.000D+00 0.000D+00 0.000D+00 0.100D+01
 Coeff:     -0.615D-01 0.848D-01 0.227D+00 0.750D+00
 Gap=     0.153 Goal=   None    Shift=    0.000
 RMSDP=7.83D-04 MaxDP=3.70D-02 DE=-3.60D-03 OVMax= 6.46D-03

 Cycle   5  Pass 1  IDiag  1:
 RMSU=  2.84D-04    CP:  6.76D-01  2.02D+00  1.43D+00  9.36D-01
 FoFJK:  IHMeth= 1 ICntrl=     0 DoSepK=T KAlg= 1 I1Cent= 0 FoldK=F
 E= -301.771775233432     Delta-E=       -0.000292306998 Rises=F Damp=F
 DIIS: error= 5.35D-04 at cycle   5 NSaved=   5.
 NSaved= 5 IEnMin= 5 EnMin= -301.771775233432     IErMin= 5 ErrMin= 5.35D-04
 ErrMax= 5.35D-04 EMaxC= 1.00D-01 BMatC= 7.45D-05 BMatP= 2.90D-04
 IDIUse=3 WtCom= 9.95D-01 WtEn= 5.35D-03
 Coeff-Com:  0.589D-01-0.116D+00 0.300D-01 0.419D+00 0.608D+00
 Coeff-En:   0.000D+00 0.000D+00 0.000D+00 0.000D+00 0.100D+01
 Coeff:      0.586D-01-0.115D+00 0.299D-01 0.417D+00 0.610D+00
 Gap=     0.153 Goal=   None    Shift=    0.000
 RMSDP=3.49D-04 MaxDP=2.23D-02 DE=-2.92D-04 OVMax= 3.24D-03

 Cycle   6  Pass 1  IDiag  1:
 RMSU=  9.28D-05    CP:  6.75D-01  2.00D+00  1.48D+00  9.79D-01  1.31D+00
 FoFJK:  IHMeth= 1 ICntrl=     0 DoSepK=T KAlg= 1 I1Cent= 0 FoldK=F
 E= -301.771852152487     Delta-E=       -0.000076919055 Rises=F Damp=F
 DIIS: error= 2.43D-04 at cycle   6 NSaved=   6.
 NSaved= 6 IEnMin= 6 EnMin= -301.771852152487     IErMin= 6 ErrMin= 2.43D-04
 ErrMax= 2.43D-04 EMaxC= 1.00D-01 BMatC= 8.40D-06 BMatP= 7.45D-05
 IDIUse=3 WtCom= 9.98D-01 WtEn= 2.43D-03
 Coeff-Com:  0.331D-01-0.612D-01-0.169D-01 0.820D-01 0.293D+00 0.670D+00
 Coeff-En:   0.000D+00 0.000D+00 0.000D+00 0.000D+00 0.000D+00 0.100D+01
 Coeff:      0.330D-01-0.611D-01-0.169D-01 0.818D-01 0.292D+00 0.671D+00
 Gap=     0.153 Goal=   None    Shift=    0.000
 RMSDP=1.49D-04 MaxDP=8.76D-03 DE=-7.69D-05 OVMax= 1.54D-03

 Cycle   7  Pass 1  IDiag  1:
 RMSU=  4.04D-05    CP:  6.76D-01  2.00D+00  1.50D+00  1.01D+00  1.50D+00
                    CP:  1.03D+00
 FoFJK:  IHMeth= 1 ICntrl=     0 DoSepK=T KAlg= 1 I1Cent= 0 FoldK=F
 E= -301.771863083520     Delta-E=       -0.000010931033 Rises=F Damp=F
 DIIS: error= 6.22D-05 at cycle   7 NSaved=   7.
 NSaved= 7 IEnMin= 7 EnMin= -301.771863083520     IErMin= 7 ErrMin= 6.22D-05
 ErrMax= 6.22D-05 EMaxC= 1.00D-01 BMatC= 1.29D-06 BMatP= 8.40D-06
 IDIUse=1 WtCom= 1.00D+00 WtEn= 0.00D+00
 Coeff-Com:  0.621D-02-0.989D-02-0.155D-01-0.437D-01 0.337D-01 0.305D+00
 Coeff-Com:  0.725D+00
 Coeff:      0.621D-02-0.989D-02-0.155D-01-0.437D-01 0.337D-01 0.305D+00
 Coeff:      0.725D+00
 Gap=     0.153 Goal=   None    Shift=    0.000
 RMSDP=1.03D-04 MaxDP=5.15D-03 DE=-1.09D-05 OVMax= 6.95D-04

 Cycle   8  Pass 1  IDiag  1:
 RMSU=  1.79D-05    CP:  6.77D-01  1.99D+00  1.50D+00  1.03D+00  1.63D+00
                    CP:  1.16D+00  1.47D+00
 FoFJK:  IHMeth= 1 ICntrl=     0 DoSepK=T KAlg= 1 I1Cent= 0 FoldK=F
 E= -301.771865090182     Delta-E=       -0.000002006662 Rises=F Damp=F
 DIIS: error= 3.65D-05 at cycle   8 NSaved=   8.
 NSaved= 8 IEnMin= 8 EnMin= -301.771865090182     IErMin= 8 ErrMin= 3.65D-05
 ErrMax= 3.65D-05 EMaxC= 1.00D-01 BMatC= 1.03D-07 BMatP= 1.29D-06
 IDIUse=1 WtCom= 1.00D+00 WtEn= 0.00D+00
 Coeff-Com: -0.349D-02 0.700D-02-0.159D-02-0.291D-01-0.337D-01-0.954D-02
 Coeff-Com:  0.186D+00 0.884D+00
 Coeff:     -0.349D-02 0.700D-02-0.159D-02-0.291D-01-0.337D-01-0.954D-02
 Coeff:      0.186D+00 0.884D+00
 Gap=     0.153 Goal=   None    Shift=    0.000
 RMSDP=4.57D-05 MaxDP=2.75D-03 DE=-2.01D-06 OVMax= 3.68D-04

 Cycle   9  Pass 1  IDiag  1:
 RMSU=  8.75D-06    CP:  6.77D-01  1.99D+00  1.51D+00  1.04D+00  1.70D+00
                    CP:  1.18D+00  1.78D+00  1.49D+00
 FoFJK:  IHMeth= 1 ICntrl=     0 DoSepK=T KAlg= 1 I1Cent= 0 FoldK=F
 E= -301.771865363996     Delta-E=       -0.000000273814 Rises=F Damp=F
 DIIS: error= 9.16D-06 at cycle   9 NSaved=   9.
 NSaved= 9 IEnMin= 9 EnMin= -301.771865363996     IErMin= 9 ErrMin= 9.16D-06
 ErrMax= 9.16D-06 EMaxC= 1.00D-01 BMatC= 2.14D-08 BMatP= 1.03D-07
 IDIUse=1 WtCom= 1.00D+00 WtEn= 0.00D+00
 Coeff-Com: -0.182D-02 0.339D-02 0.127D-02-0.533D-02-0.139D-01-0.305D-01
 Coeff-Com: -0.357D-01 0.329D+00 0.754D+00
 Coeff:     -0.182D-02 0.339D-02 0.127D-02-0.533D-02-0.139D-01-0.305D-01
 Coeff:     -0.357D-01 0.329D+00 0.754D+00
 Gap=     0.153 Goal=   None    Shift=    0.000
 RMSDP=1.61D-05 MaxDP=9.94D-04 DE=-2.74D-07 OVMax= 1.38D-04

 Cycle  10  Pass 1  IDiag  1:
 RMSU=  2.25D-06    CP:  6.78D-01  1.99D+00  1.51D+00  1.04D+00  1.72D+00
                    CP:  1.19D+00  1.86D+00  1.74D+00  1.30D+00
 FoFJK:  IHMeth= 1 ICntrl=     0 DoSepK=T KAlg= 1 I1Cent= 0 FoldK=F
 E= -301.771865398728     Delta-E=       -0.000000034732 Rises=F Damp=F
 DIIS: error= 4.75D-06 at cycle  10 NSaved=  10.
 NSaved=10 IEnMin=10 EnMin= -301.771865398728     IErMin=10 ErrMin= 4.75D-06
 ErrMax= 4.75D-06 EMaxC= 1.00D-01 BMatC= 3.62D-09 BMatP= 2.14D-08
 IDIUse=1 WtCom= 1.00D+00 WtEn= 0.00D+00
 Coeff-Com: -0.248D-03 0.389D-03 0.771D-03 0.181D-02-0.754D-03-0.100D-01
 Coeff-Com: -0.479D-01 0.934D-02 0.327D+00 0.720D+00
 Coeff:     -0.248D-03 0.389D-03 0.771D-03 0.181D-02-0.754D-03-0.100D-01
 Coeff:     -0.479D-01 0.934D-02 0.327D+00 0.720D+00
 Gap=     0.153 Goal=   None    Shift=    0.000
 RMSDP=6.93D-06 MaxDP=5.28D-04 DE=-3.47D-08 OVMax= 4.29D-05

 Cycle  11  Pass 1  IDiag  1:
 RMSU=  9.42D-07    CP:  6.78D-01  1.99D+00  1.51D+00  1.04D+00  1.72D+00
                    CP:  1.19D+00  1.90D+00  1.83D+00  1.49D+00  1.10D+00
 FoFJK:  IHMeth= 1 ICntrl=     0 DoSepK=T KAlg= 1 I1Cent= 0 FoldK=F
 E= -301.771865404475     Delta-E=       -0.000000005747 Rises=F Damp=F
 DIIS: error= 9.48D-07 at cycle  11 NSaved=  11.
 NSaved=11 IEnMin=11 EnMin= -301.771865404475     IErMin=11 ErrMin= 9.48D-07
 ErrMax= 9.48D-07 EMaxC= 1.00D-01 BMatC= 2.36D-10 BMatP= 3.62D-09
 IDIUse=1 WtCom= 1.00D+00 WtEn= 0.00D+00
 Coeff-Com:  0.241D-03-0.468D-03 0.120D-04 0.131D-02 0.230D-02 0.271D-02
 Coeff-Com: -0.991D-02-0.502D-01-0.227D-01 0.163D+00 0.914D+00
 Coeff:      0.241D-03-0.468D-03 0.120D-04 0.131D-02 0.230D-02 0.271D-02
 Coeff:     -0.991D-02-0.502D-01-0.227D-01 0.163D+00 0.914D+00
 Gap=     0.153 Goal=   None    Shift=    0.000
 RMSDP=2.54D-06 MaxDP=1.37D-04 DE=-5.75D-09 OVMax= 1.83D-05

 Cycle  12  Pass 1  IDiag  1:
 RMSU=  3.31D-07    CP:  6.78D-01  1.99D+00  1.51D+00  1.04D+00  1.72D+00
                    CP:  1.19D+00  1.91D+00  1.87D+00  1.57D+00  1.26D+00
                    CP:  1.49D+00
 FoFJK:  IHMeth= 1 ICntrl=     0 DoSepK=T KAlg= 1 I1Cent= 0 FoldK=F
 E= -301.771865405116     Delta-E=       -0.000000000641 Rises=F Damp=F
 DIIS: error= 3.59D-07 at cycle  12 NSaved=  12.
 NSaved=12 IEnMin=12 EnMin= -301.771865405116     IErMin=12 ErrMin= 3.59D-07
 ErrMax= 3.59D-07 EMaxC= 1.00D-01 BMatC= 2.52D-11 BMatP= 2.36D-10
 IDIUse=1 WtCom= 1.00D+00 WtEn= 0.00D+00
 Coeff-Com:  0.824D-04-0.152D-03-0.513D-04 0.157D-03 0.686D-03 0.164D-02
 Coeff-Com:  0.140D-02-0.117D-01-0.308D-01-0.262D-01 0.239D+00 0.826D+00
 Coeff:      0.824D-04-0.152D-03-0.513D-04 0.157D-03 0.686D-03 0.164D-02
 Coeff:      0.140D-02-0.117D-01-0.308D-01-0.262D-01 0.239D+00 0.826D+00
 Gap=     0.153 Goal=   None    Shift=    0.000
 RMSDP=5.71D-07 MaxDP=3.61D-05 DE=-6.41D-10 OVMax= 3.83D-06

 Cycle  13  Pass 1  IDiag  1:
 RMSU=  8.40D-08    CP:  6.78D-01  1.99D+00  1.51D+00  1.04D+00  1.72D+00
                    CP:  1.19D+00  1.91D+00  1.87D+00  1.58D+00  1.29D+00
                    CP:  1.71D+00  1.15D+00
 FoFJK:  IHMeth= 1 ICntrl=     0 DoSepK=T KAlg= 1 I1Cent= 0 FoldK=F
 E= -301.771865405167     Delta-E=       -0.000000000050 Rises=F Damp=F
 DIIS: error= 1.92D-07 at cycle  13 NSaved=  13.
 NSaved=13 IEnMin=13 EnMin= -301.771865405167     IErMin=13 ErrMin= 1.92D-07
 ErrMax= 1.92D-07 EMaxC= 1.00D-01 BMatC= 4.41D-12 BMatP= 2.52D-11
 IDIUse=1 WtCom= 1.00D+00 WtEn= 0.00D+00
 Coeff-Com: -0.117D-04 0.240D-04-0.138D-04-0.155D-03-0.119D-03 0.132D-03
 Coeff-Com:  0.175D-02 0.274D-02-0.804D-02-0.343D-01-0.395D-01 0.278D+00
 Coeff-Com:  0.799D+00
 Coeff:     -0.117D-04 0.240D-04-0.138D-04-0.155D-03-0.119D-03 0.132D-03
 Coeff:      0.175D-02 0.274D-02-0.804D-02-0.343D-01-0.395D-01 0.278D+00
 Coeff:      0.799D+00
 Gap=     0.153 Goal=   None    Shift=    0.000
 RMSDP=2.18D-07 MaxDP=1.21D-05 DE=-5.02D-11 OVMax= 1.98D-06

 Cycle  14  Pass 1  IDiag  1:
 RMSU=  3.48D-08    CP:  6.78D-01  1.99D+00  1.51D+00  1.04D+00  1.72D+00
                    CP:  1.20D+00  1.90D+00  1.87D+00  1.58D+00  1.30D+00
                    CP:  1.79D+00  1.24D+00  1.46D+00
 FoFJK:  IHMeth= 1 ICntrl=     0 DoSepK=T KAlg= 1 I1Cent= 0 FoldK=F
 E= -301.771865405172     Delta-E=       -0.000000000005 Rises=F Damp=F
 DIIS: error= 3.08D-08 at cycle  14 NSaved=  14.
 NSaved=14 IEnMin=14 EnMin= -301.771865405172     IErMin=14 ErrMin= 3.08D-08
 ErrMax= 3.08D-08 EMaxC= 1.00D-01 BMatC= 3.21D-13 BMatP= 4.41D-12
 IDIUse=1 WtCom= 1.00D+00 WtEn= 0.00D+00
 Coeff-Com: -0.103D-04 0.196D-04 0.398D-05-0.446D-04-0.868D-04-0.126D-03
 Coeff-Com:  0.112D-03 0.182D-02 0.273D-02-0.294D-02-0.343D-01-0.614D-01
 Coeff-Com:  0.160D+00 0.934D+00
 Coeff:     -0.103D-04 0.196D-04 0.398D-05-0.446D-04-0.868D-04-0.126D-03
 Coeff:      0.112D-03 0.182D-02 0.273D-02-0.294D-02-0.343D-01-0.614D-01
 Coeff:      0.160D+00 0.934D+00
 Gap=     0.153 Goal=   None    Shift=    0.000
 RMSDP=8.73D-08 MaxDP=4.52D-06 DE=-4.89D-12 OVMax= 5.78D-07

 Cycle  15  Pass 1  IDiag  1:
 RMSU=  1.41D-08    CP:  6.78D-01  1.99D+00  1.51D+00  1.04D+00  1.72D+00
                    CP:  1.20D+00  1.90D+00  1.87D+00  1.58D+00  1.30D+00
                    CP:  1.81D+00  1.24D+00  1.63D+00  1.32D+00
 FoFJK:  IHMeth= 1 ICntrl=     0 DoSepK=T KAlg= 1 I1Cent= 0 FoldK=F
 E= -301.771865405175     Delta-E=       -0.000000000004 Rises=F Damp=F
 DIIS: error= 1.17D-08 at cycle  15 NSaved=  15.
 NSaved=15 IEnMin=15 EnMin= -301.771865405175     IErMin=15 ErrMin= 1.17D-08
 ErrMax= 1.17D-08 EMaxC= 1.00D-01 BMatC= 1.45D-14 BMatP= 3.21D-13
 IDIUse=1 WtCom= 1.00D+00 WtEn= 0.00D+00
 Coeff-Com:  0.638D-06-0.137D-05 0.885D-06 0.105D-04 0.907D-05-0.669D-05
 Coeff-Com: -0.155D-03-0.212D-03 0.703D-03 0.227D-02 0.377D-02-0.210D-01
 Coeff-Com: -0.516D-01-0.473D-01 0.111D+01
 Coeff:      0.638D-06-0.137D-05 0.885D-06 0.105D-04 0.907D-05-0.669D-05
 Coeff:     -0.155D-03-0.212D-03 0.703D-03 0.227D-02 0.377D-02-0.210D-01
 Coeff:     -0.516D-01-0.473D-01 0.111D+01
 Gap=     0.153 Goal=   None    Shift=    0.000
 RMSDP=3.61D-08 MaxDP=3.43D-06 DE=-3.64D-12 OVMax= 2.29D-07

 Cycle  16  Pass 1  IDiag  1:
 RMSU=  3.51D-09    CP:  6.78D-01  1.99D+00  1.51D+00  1.04D+00  1.72D+00
                    CP:  1.20D+00  1.90D+00  1.87D+00  1.58D+00  1.30D+00
                    CP:  1.82D+00  1.23D+00  1.69D+00  1.46D+00  1.36D+00
 FoFJK:  IHMeth= 1 ICntrl=     0 DoSepK=T KAlg= 1 I1Cent= 0 FoldK=F
 E= -301.771865405176     Delta-E=       -0.000000000001 Rises=F Damp=F
 DIIS: error= 3.95D-09 at cycle  16 NSaved=  16.
 NSaved=16 IEnMin=16 EnMin= -301.771865405176     IErMin=16 ErrMin= 3.95D-09
 ErrMax= 3.95D-09 EMaxC= 1.00D-01 BMatC= 1.35D-15 BMatP= 1.45D-14
 IDIUse=1 WtCom= 1.00D+00 WtEn= 0.00D+00
 Large coefficients: NSaved= 16 BigCof=    0.00 CofMax=   10.00 Det=-4.87D-15
 Inversion failed.  Reducing to 15 matrices.
 Coeff-Com: -0.283D-07-0.835D-09 0.668D-06 0.176D-05 0.205D-06-0.369D-05
 Coeff-Com: -0.338D-04-0.844D-04-0.111D-05 0.134D-02 0.247D-02-0.500D-02
 Coeff-Com: -0.539D-01-0.455D-01 0.110D+01
 Coeff:     -0.283D-07-0.835D-09 0.668D-06 0.176D-05 0.205D-06-0.369D-05
 Coeff:     -0.338D-04-0.844D-04-0.111D-05 0.134D-02 0.247D-02-0.500D-02
 Coeff:     -0.539D-01-0.455D-01 0.110D+01
 Gap=     0.153 Goal=   None    Shift=    0.000
 RMSDP=1.48D-08 MaxDP=1.51D-06 DE=-7.96D-13 OVMax= 7.31D-08

 Cycle  17  Pass 1  IDiag  1:
 RMSU=  1.00D-09    CP:  6.78D-01  1.99D+00  1.51D+00  1.04D+00  1.72D+00
                    CP:  1.20D+00  1.90D+00  1.87D+00  1.58D+00  1.30D+00
                    CP:  1.81D+00  1.22D+00  1.69D+00  1.49D+00  1.50D+00
                    CP:  1.38D+00
 FoFJK:  IHMeth= 1 ICntrl=     0 DoSepK=T KAlg= 1 I1Cent= 0 FoldK=F
 E= -301.771865405174     Delta-E=        0.000000000002 Rises=F Damp=F
 DIIS: error= 1.17D-09 at cycle  17 NSaved=  16.
 NSaved=16 IEnMin=15 EnMin= -301.771865405176     IErMin=16 ErrMin= 1.17D-09
 ErrMax= 1.17D-09 EMaxC= 1.00D-01 BMatC= 1.98D-16 BMatP= 1.35D-15
 IDIUse=1 WtCom= 1.00D+00 WtEn= 0.00D+00
 Large coefficients: NSaved= 16 BigCof=    0.00 CofMax=   10.00 Det=-7.01D-16
 Inversion failed.  Reducing to 15 matrices.
 Coeff-Com: -0.104D-06-0.560D-06 0.191D-06 0.149D-05 0.117D-04 0.480D-05
 Coeff-Com: -0.946D-04-0.217D-03-0.144D-04 0.235D-02 0.548D-02-0.693D-02
 Coeff-Com: -0.116D+00 0.159D+00 0.956D+00
 Coeff:     -0.104D-06-0.560D-06 0.191D-06 0.149D-05 0.117D-04 0.480D-05
 Coeff:     -0.946D-04-0.217D-03-0.144D-04 0.235D-02 0.548D-02-0.693D-02
 Coeff:     -0.116D+00 0.159D+00 0.956D+00
 Gap=     0.153 Goal=   None    Shift=    0.000
 RMSDP=3.52D-09 MaxDP=3.56D-07 DE= 1.93D-12 OVMax= 2.22D-08

 SCF Done:  E(RwB97XD) =  -301.771865405     A.U. after   17 cycles
             Convg  =    0.3517D-08             -V/T =  2.0060
 KE= 2.999868578349D+02 PE=-1.186921824561D+03 EE= 3.473267375362D+02
 Leave Link  502 at Thu May 25 09:18:26 2023, MaxMem= 3276800000 cpu:     557.0
 (Enter /local/g09-source/g09/l801.exe)
 ExpMin= 1.49D-03 ExpMax= 6.29D+03 ExpMxC= 9.49D+02 IAcc=3 IRadAn=         5 AccDes= 0.00D+00
 HarFok:  IExCor=  205 AccDes= 0.00D+00 IRadAn=         5 IDoV=-2
 ScaDFX=  1.000000  1.000000  1.000000  1.000000
 Largest valence mixing into a core orbital is  7.88D-05
 Largest core mixing into a valence orbital is  1.21D-05
 Range of M.O.s used for correlation:     8   200
 NBasis=   200 NAE=    24 NBE=    24 NFC=     7 NFV=     0
 NROrb=    193 NOA=    17 NOB=    17 NVA=   176 NVB=   176

 **** Warning!!: The largest alpha MO coefficient is  0.15370774D+03

 Leave Link  801 at Thu May 25 09:18:27 2023, MaxMem= 3276800000 cpu:       1.1
 (Enter /local/g09-source/g09/l914.exe)
 RHF ground state
 MDV=  3276800000 DFT=T DoStab=F Mixed=T DoRPA=T DoScal=F NonHer=T
 Making orbital integer symmetry assigments:
     8 initial guesses have been made.
 Convergence on wavefunction:    0.001000000000000
 Davidson Disk Diagonalization:  ConvIn= 1.00D-03 SkipCon=T Conv= 1.00D-03.
 Max sub-space:   200 roots to seek:     8 dimension of matrix:   5984
 Iteration     1 Dimension     8 NMult     8
 CISAX:  IP=  1 NPass=   1 NMax=     8.
 CISAX will form     8 AO SS matrices at one time.
 NMat=     8 NSing=     8.
 FoFJK:  IHMeth= 1 ICntrl=     0 DoSepK=T KAlg= 1 I1Cent= 0 FoldK=F
 FoFCou: FMM=F IPFlag=           0 FMFlag=      100000 FMFlg1=           0
         NFxFlg=           0 DoJE=F BraDBF=F KetDBF=F FulRan=T
         Omega=  0.000000  0.000000  1.000000  0.000000  0.000000 ICntrl=     500 IOpCl=  0
         NMat0=    8 NMatS0=    8 NMatT0=    0 NMatD0=    8 NMtDS0=    0 NMtDT0=    0
         I1Cent=           0 NGrid=           0.
 Symmetry not used in FoFCou.
 CISAX:  IP=  1 NPass=   1 NMax=     8.
 CISAX will form     8 AO SS matrices at one time.
 NMat=     8 NSing=     8.
 FoFJK:  IHMeth= 1 ICntrl=     0 DoSepK=T KAlg= 1 I1Cent= 0 FoldK=F
 New state      1 was old state      2
 Excitation Energies [eV] at current iteration:
 Root      1 :     3.279744912059125
 Root      2 :     3.325135987407356
 Iteration     2 Dimension    12 NMult    12
 CISAX:  IP=  1 NPass=   1 NMax=     4.
 CISAX will form     4 AO SS matrices at one time.
 NMat=     4 NSing=     4.
 FoFJK:  IHMeth= 1 ICntrl=     0 DoSepK=T KAlg= 1 I1Cent= 0 FoldK=F
 CISAX:  IP=  1 NPass=   1 NMax=     4.
 CISAX will form     4 AO SS matrices at one time.
 NMat=     4 NSing=     4.
 FoFJK:  IHMeth= 1 ICntrl=     0 DoSepK=T KAlg= 1 I1Cent= 0 FoldK=F
 Root      1 not converged, maximum delta is    0.114511369840770
 Excitation Energies [eV] at current iteration:
 Root      1 :     3.256250590759783   Change is   -0.023494321299341
 Root      2 :     3.310322092686572   Change is   -0.014813894720785
 Iteration     3 Dimension    16 NMult    16
 CISAX:  IP=  1 NPass=   1 NMax=     4.
 CISAX will form     4 AO SS matrices at one time.
 NMat=     4 NSing=     4.
 FoFJK:  IHMeth= 1 ICntrl=     0 DoSepK=T KAlg= 1 I1Cent= 0 FoldK=F
 CISAX:  IP=  1 NPass=   1 NMax=     4.
 CISAX will form     4 AO SS matrices at one time.
 NMat=     4 NSing=     4.
 FoFJK:  IHMeth= 1 ICntrl=     0 DoSepK=T KAlg= 1 I1Cent= 0 FoldK=F
 Root      1 not converged, maximum delta is    0.067026316749668
 Excitation Energies [eV] at current iteration:
 Root      1 :     3.244251490411798   Change is   -0.011999100347986
 Root      2 :     3.306266038236699   Change is   -0.004056054449872
 Iteration     4 Dimension    20 NMult    20
 CISAX:  IP=  1 NPass=   1 NMax=     4.
 CISAX will form     4 AO SS matrices at one time.
 NMat=     4 NSing=     4.
 FoFJK:  IHMeth= 1 ICntrl=     0 DoSepK=T KAlg= 1 I1Cent= 0 FoldK=F
 CISAX:  IP=  1 NPass=   1 NMax=     4.
 CISAX will form     4 AO SS matrices at one time.
 NMat=     4 NSing=     4.
 FoFJK:  IHMeth= 1 ICntrl=     0 DoSepK=T KAlg= 1 I1Cent= 0 FoldK=F
 Root      1 not converged, maximum delta is    0.028589728745618
 Excitation Energies [eV] at current iteration:
 Root      1 :     3.238909922379220   Change is   -0.005341568032578
 Root      2 :     3.305244564019774   Change is   -0.001021474216925
 Iteration     5 Dimension    24 NMult    24
 CISAX:  IP=  1 NPass=   1 NMax=     4.
 CISAX will form     4 AO SS matrices at one time.
 NMat=     4 NSing=     4.
 FoFJK:  IHMeth= 1 ICntrl=     0 DoSepK=T KAlg= 1 I1Cent= 0 FoldK=F
 CISAX:  IP=  1 NPass=   1 NMax=     4.
 CISAX will form     4 AO SS matrices at one time.
 NMat=     4 NSing=     4.
 FoFJK:  IHMeth= 1 ICntrl=     0 DoSepK=T KAlg= 1 I1Cent= 0 FoldK=F
 Root      1 not converged, maximum delta is    0.008037742047866
 Excitation Energies [eV] at current iteration:
 Root      1 :     3.237967765962662   Change is   -0.000942156416558
 Root      2 :     3.305079596799197   Change is   -0.000164967220577
 Iteration     6 Dimension    28 NMult    28
 CISAX:  IP=  1 NPass=   1 NMax=     4.
 CISAX will form     4 AO SS matrices at one time.
 NMat=     4 NSing=     4.
 FoFJK:  IHMeth= 1 ICntrl=     0 DoSepK=T KAlg= 1 I1Cent= 0 FoldK=F
 CISAX:  IP=  1 NPass=   1 NMax=     4.
 CISAX will form     4 AO SS matrices at one time.
 NMat=     4 NSing=     4.
 FoFJK:  IHMeth= 1 ICntrl=     0 DoSepK=T KAlg= 1 I1Cent= 0 FoldK=F
 Root      1 not converged, maximum delta is    0.002953787070875
 Excitation Energies [eV] at current iteration:
 Root      1 :     3.237870796964906   Change is   -0.000096968997755
 Root      2 :     3.305065297255055   Change is   -0.000014299544142
 Iteration     7 Dimension    32 NMult    32
 CISAX:  IP=  1 NPass=   1 NMax=     4.
 CISAX will form     4 AO SS matrices at one time.
 NMat=     4 NSing=     4.
 FoFJK:  IHMeth= 1 ICntrl=     0 DoSepK=T KAlg= 1 I1Cent= 0 FoldK=F
 CISAX:  IP=  1 NPass=   1 NMax=     4.
 CISAX will form     4 AO SS matrices at one time.
 NMat=     4 NSing=     4.
 FoFJK:  IHMeth= 1 ICntrl=     0 DoSepK=T KAlg= 1 I1Cent= 0 FoldK=F
 Root      1 not converged, maximum delta is    0.001681497208718
 Excitation Energies [eV] at current iteration:
 Root      1 :     3.237852797260295   Change is   -0.000017999704611
 Root      2 :     3.305063699086997   Change is   -0.000001598168058
 Iteration     8 Dimension    36 NMult    36
 CISAX:  IP=  1 NPass=   1 NMax=     4.
 CISAX will form     4 AO SS matrices at one time.
 NMat=     4 NSing=     4.
 FoFJK:  IHMeth= 1 ICntrl=     0 DoSepK=T KAlg= 1 I1Cent= 0 FoldK=F
 CISAX:  IP=  1 NPass=   1 NMax=     4.
 CISAX will form     4 AO SS matrices at one time.
 NMat=     4 NSing=     4.
 FoFJK:  IHMeth= 1 ICntrl=     0 DoSepK=T KAlg= 1 I1Cent= 0 FoldK=F
 Root      1 has converged.
 Excitation Energies [eV] at current iteration:
 Root      1 :     3.237848956779934   Change is   -0.000003840480361
 Root      2 :     3.305063366642486   Change is   -0.000000332444510
 Convergence achieved on expansion vectors.
 ***********************************************************************
 Excited states from <AA,BB:AA,BB> singles matrix:
 ***********************************************************************
 
 1PDM for each excited state written to RWF  633
 Ground to excited state transition electric dipole moments (Au):
       state          X           Y           Z        Dip. S.      Osc.
         1        -0.0062     -0.0328      0.0849      0.0083      0.0007
 Ground to excited state transition velocity dipole moments (Au):
       state          X           Y           Z        Dip. S.      Osc.
         1         0.0011      0.0036     -0.0091      0.0001      0.0005
 Ground to excited state transition magnetic dipole moments (Au):
       state          X           Y           Z
         1        -0.0195      0.0478      0.0056
 <0|del|b> * <b|rxdel|0> + <0|del|b> * <b|delr+rdel|0>
 Rotatory Strengths (R) in cgs (10**-40 erg-esu-cm/Gauss)
       state          XX          YY          ZZ    R(velocity)
         1         0.3775      0.1902      0.0077      0.1918
 Total R(velocity) tensor for State=          1
                 1             2             3 
      1   0.377455D+00 -0.175716D+00 -0.212384D-01
      2  -0.219863D-02  0.190227D+00  0.738141D-01
      3   0.224934D+00 -0.524362D-01  0.770404D-02
 1/2[<0|r|b>*<b|rxdel|0> + (<0|rxdel|b>*<b|r|0>)*]
 Rotatory Strengths (R) in cgs (10**-40 erg-esu-cm/Gauss)
       state          XX          YY          ZZ     R(length)     R(au)
         1        -0.0856      1.1075     -0.3353      0.2289      0.0005
  1/2[<0|del|b>*<b|r|0> + (<0|r|b>*<b|del|0>)*] (Au)
       state          X           Y           Z        Dip. S.   Osc.(frdel)
         1        -0.0000     -0.0001     -0.0008      0.0009      0.0006
 Ground to excited state transition densities written to RWF  633

 Excitation energies and oscillator strengths:
 
 Excited state symmetry could not be determined.
 Excited State   1:      Singlet-?Sym    3.2378489568 eV  382.92 nm  f=0.0006607076  <S**2>=0.000
         8 ->   25     -.22503659723426E-05
         8 ->   26     -.44859226344920E-05
         8 ->   27     -.19252591010413E-05
         8 ->   28     -.73280232112239E-05
         8 ->   29     0.38300340701382E-04
         8 ->   30     0.63903015912513E-04
         8 ->   31     -.14443061343709E-04
         8 ->   32     0.53801806365292E-05
         8 ->   33     0.28563663999293E-04
         8 ->   34     0.38396370905442E-05
         8 ->   35     -.98410385384196E-05
         8 ->   36     0.18699358538990E-04
         8 ->   37     -.12399438342610E-04
         8 ->   38     0.34323589401430E-04
         8 ->   39     -.90214847321588E-05
         8 ->   40     -.45458127942789E-04
         8 ->   41     0.14453777410507E-04
         8 ->   42     0.13514158541027E-04
         8 ->   43     -.18240843230121E-04
         8 ->   44     -.15794867534412E-04
         8 ->   45     0.98515033219593E-05
         8 ->   46     0.38094203820296E-04
         8 ->   47     -.33471199318412E-04
         8 ->   48     -.32347255592641E-04
         8 ->   49     -.40729659401853E-04
         8 ->   50     0.20814954582134E-05
         8 ->   51     -.15007295121800E-04
         8 ->   52     0.80594832591553E-04
         8 ->   53     0.10394891650162E-04
         8 ->   54     -.12065593077322E-04
         8 ->   55     -.30769450927002E-04
         8 ->   56     0.29171903719724E-04
         8 ->   57     0.13538159593000E-04
         8 ->   58     0.11957164604178E-04
         8 ->   59     -.14887116875370E-04
         8 ->   60     0.93556334952877E-05
         8 ->   61     -.21346412293350E-04
         8 ->   62     0.28007781604362E-04
         8 ->   63     -.43658830642810E-04
         8 ->   64     0.19930500416292E-05
         8 ->   65     -.92371859151517E-05
         8 ->   66     0.21637096994918E-04
         8 ->   67     -.22179474418526E-04
         8 ->   68     0.15579264476459E-04
         8 ->   69     -.11048744995315E-04
         8 ->   70     -.15290141246719E-05
         8 ->   71     -.10196648620415E-05
         8 ->   72     -.22954978680772E-05
         8 ->   73     0.82792435581625E-06
         8 ->   74     -.11663903484175E-05
         8 ->   75     -.18597327304771E-04
         8 ->   76     0.43969616118467E-05
         8 ->   77     -.61292880580054E-05
         8 ->   78     0.74519817562330E-05
         8 ->   79     0.84389619918037E-05
         8 ->   80     -.44528367693595E-05
         8 ->   81     0.22864673377776E-04
         8 ->   82     0.41891920340106E-05
         8 ->   83     0.47471520858693E-05
         8 ->   84     0.99222803766829E-05
         8 ->   85     0.50567023861688E-05
         8 ->   86     -.75097149701607E-06
         8 ->   87     0.70190408187295E-05
         8 ->   88     0.94483028858400E-06
         8 ->   89     0.65397730739248E-05
         8 ->   90     0.10284515067018E-04
         8 ->   91     0.28620940314288E-04
         8 ->   92     -.39059576609086E-04
         8 ->   93     0.40812787640875E-05
         8 ->   94     -.30452225672107E-05
         8 ->   95     0.65963893708625E-05
         8 ->   96     0.43299230459802E-05
         8 ->   97     0.49175149774520E-05
         8 ->   98     -.17260680174677E-05
         8 ->   99     0.11589597300885E-04
         8 ->  100     -.70643033886210E-05
         8 ->  101     0.30376451417698E-05
         8 ->  102     0.71053207873996E-05
         8 ->  103     -.43838415267083E-05
         8 ->  104     0.14814489008829E-04
         8 ->  105     0.45127826525831E-05
         8 ->  106     0.81809864453156E-05
         8 ->  107     -.54015039792972E-06
         8 ->  108     -.32729704198604E-05
         8 ->  109     -.99188907985830E-05
         8 ->  110     0.34395499621056E-05
         8 ->  111     -.94182057348052E-05
         8 ->  112     0.15624813635139E-05
         8 ->  113     0.64385527766678E-06
         8 ->  114     0.12875510512534E-05
         8 ->  115     -.46597847379316E-05
         8 ->  116     -.46154469560744E-05
         8 ->  117     0.43413519014568E-05
         8 ->  118     -.59733318577274E-05
         8 ->  119     -.81606901918083E-05
         8 ->  120     0.15417115434654E-05
         8 ->  121     0.13354713295944E-04
         8 ->  122     -.11104631099931E-05
         8 ->  123     -.24405214033701E-05
         8 ->  124     -.12877362827536E-04
         8 ->  125     0.18471099179079E-05
         8 ->  126     -.13539481329787E-05
         8 ->  127     -.67580171093525E-06
         8 ->  128     -.10473798818514E-04
         8 ->  129     -.49448101974753E-05
         8 ->  130     0.38059217818643E-05
         8 ->  131     -.90888591711238E-05
         8 ->  132     -.11285248529200E-04
         8 ->  133     0.22184226203193E-05
         8 ->  134     -.11577219322570E-04
         8 ->  135     0.17653758009979E-05
         8 ->  136     0.53008397468179E-05
         8 ->  137     -.38672795387284E-05
         8 ->  138     0.33873031421628E-05
         8 ->  139     -.79545561317642E-05
         8 ->  140     0.33279321335908E-05
         8 ->  141     -.63458894523448E-05
         8 ->  142     -.23612971148816E-05
         8 ->  143     -.30709957141302E-05
         8 ->  144     -.34070314158786E-05
         8 ->  145     0.29493103919315E-05
         8 ->  146     -.18265739404571E-05
         8 ->  147     -.17626944058270E-05
         8 ->  148     0.10318361857663E-05
         8 ->  149     0.54130347601681E-05
         8 ->  150     0.20113934778922E-05
         8 ->  151     0.19451479635631E-05
         8 ->  152     -.63729181869178E-05
         8 ->  153     0.12543763765190E-05
         8 ->  154     0.27248192847488E-05
         8 ->  155     -.27214765666029E-05
         8 ->  156     0.36091954259651E-05
         8 ->  157     0.63625910316426E-06
         8 ->  159     0.33895665824834E-05
         8 ->  160     0.29237326385233E-05
         8 ->  161     -.64002312938273E-06
         8 ->  162     0.21116093091592E-05
         8 ->  163     -.26314319235347E-05
         8 ->  164     0.37352344066390E-05
         8 ->  166     0.71165280634057E-06
         8 ->  167     0.11806888061232E-05
         8 ->  168     -.14424532974720E-05
         8 ->  169     0.20548256839157E-05
         8 ->  170     0.35053456268905E-05
         8 ->  171     -.58565208241193E-06
         8 ->  172     0.59862852017805E-06
         8 ->  173     0.24049268655043E-06
         8 ->  174     0.14770200972189E-05
         8 ->  175     0.26477620710525E-05
         8 ->  176     0.13274565694150E-05
         8 ->  177     -.49041506927053E-06
         8 ->  179     -.38775218564236E-07
         8 ->  180     0.92930296792374E-06
         8 ->  181     -.15446973926010E-05
         8 ->  182     0.89556554422449E-06
         8 ->  183     -.16579124834897E-05
         8 ->  184     -.45102202000015E-08
         8 ->  185     0.75936819824753E-07
         8 ->  186     -.13494324972612E-05
         8 ->  188     0.96329128989931E-06
         8 ->  189     0.11185933325302E-05
         8 ->  190     0.55006883384310E-06
         8 ->  191     -.46690077042900E-06
         8 ->  192     0.34070639299853E-06
         8 ->  193     0.59758462221162E-06
         9 ->   25     0.83827341054422E-05
         9 ->   26     0.82629900773159E-05
         9 ->   27     -.24555930405570E-04
         9 ->   28     -.16093155075757E-04
         9 ->   29     -.74006312663924E-04
         9 ->   30     -.39375513334732E-04
         9 ->   31     -.67840618019515E-04
         9 ->   32     0.46274183069442E-04
         9 ->   33     0.37854552351317E-04
         9 ->   34     -.12070212727254E-04
         9 ->   35     0.40566056611129E-05
         9 ->   36     0.10886251284071E-04
         9 ->   37     0.34514821732289E-04
         9 ->   38     -.78285687286436E-04
         9 ->   39     -.37062245965774E-05
         9 ->   40     0.29977016132561E-04
         9 ->   41     0.91732594708240E-05
         9 ->   42     -.26805248629377E-04
         9 ->   43     0.98011117185467E-05
         9 ->   44     0.91435934847556E-05
         9 ->   45     -.40471336227423E-05
         9 ->   46     -.40122610131320E-04
         9 ->   47     0.16917545961986E-04
         9 ->   48     0.72212438285924E-05
         9 ->   49     0.18056511812446E-04
         9 ->   50     0.61630632462360E-05
         9 ->   51     -.31892462495556E-05
         9 ->   52     -.35022501722798E-04
         9 ->   53     -.10772049600459E-04
         9 ->   54     -.72753227961191E-05
         9 ->   55     0.10730260540462E-04
         9 ->   56     -.15054447882161E-04
         9 ->   57     -.27650505012985E-04
         9 ->   58     0.19403428003195E-05
         9 ->   59     0.12591049611322E-04
         9 ->   60     -.12052221739815E-04
         9 ->   61     0.11119041374698E-04
         9 ->   62     0.24201614954074E-05
         9 ->   63     -.20658068627958E-04
         9 ->   64     -.10078689451598E-04
         9 ->   65     0.69007945717236E-05
         9 ->   66     0.85984401619577E-06
         9 ->   67     0.13955155007991E-05
         9 ->   68     0.27874870294506E-05
         9 ->   69     0.67672319933142E-05
         9 ->   70     0.34850705412099E-05
         9 ->   71     0.10466805657034E-04
         9 ->   72     0.83557387759174E-06
         9 ->   73     0.38433299424716E-05
         9 ->   74     0.15377706312521E-05
         9 ->   75     0.51744038519186E-05
         9 ->   76     -.11774147221039E-04
         9 ->   77     0.46824679104218E-05
         9 ->   78     0.12096015656890E-04
         9 ->   79     -.29307848167796E-05
         9 ->   80     -.32963767578626E-05
         9 ->   81     0.30025198256832E-05
         9 ->   82     0.72365783483064E-05
         9 ->   83     0.55782116328853E-05
         9 ->   84     -.43449123387181E-05
         9 ->   85     -.13005476803157E-06
         9 ->   86     -.28585107569840E-05
         9 ->   87     0.18184356945888E-05
         9 ->   88     -.11463746493743E-05
         9 ->   89     0.16812292972857E-05
         9 ->   90     -.54380971521057E-05
         9 ->   91     -.32974877945464E-05
         9 ->   92     0.28940683717040E-05
         9 ->   93     0.67810438809744E-05
         9 ->   94     -.35419487147437E-05
         9 ->   95     0.81214388021256E-07
         9 ->   96     0.19560012000419E-05
         9 ->   97     -.28723677451709E-05
         9 ->   98     0.75118112575079E-05
         9 ->   99     -.14977796475563E-05
         9 ->  100     -.25120767509146E-05
         9 ->  101     0.10303657836892E-05
         9 ->  102     -.38917653994162E-05
         9 ->  103     -.74017339768951E-06
         9 ->  104     -.15810833053870E-06
         9 ->  105     -.23159374340870E-05
         9 ->  106     -.13462122184378E-05
         9 ->  107     0.68308757193101E-05
         9 ->  108     0.33381472240303E-05
         9 ->  109     -.64758286279122E-05
         9 ->  110     -.10853186260625E-04
         9 ->  111     0.21775976359221E-04
         9 ->  112     -.11922681282276E-04
         9 ->  113     -.17034626749230E-05
         9 ->  114     -.93034014398159E-05
         9 ->  115     -.17187246322852E-05
         9 ->  116     0.14164093761149E-05
         9 ->  117     -.21210439574307E-05
         9 ->  118     0.64516494437860E-05
         9 ->  119     0.31885818690160E-06
         9 ->  120     0.52242799541586E-05
         9 ->  121     -.31260738589820E-06
         9 ->  122     -.24273463520672E-05
         9 ->  123     0.45327383723817E-05
         9 ->  124     0.46692102556109E-05
         9 ->  125     0.54608841681746E-05
         9 ->  126     0.46808645656969E-05
         9 ->  127     -.64395175845909E-06
         9 ->  128     0.41839722907082E-05
         9 ->  129     -.11706823257048E-05
         9 ->  130     0.29651792671470E-05
         9 ->  131     -.15627107676943E-05
         9 ->  132     -.16271189332158E-05
         9 ->  133     0.42726583696720E-06
         9 ->  134     0.47634338339326E-06
         9 ->  135     -.11250711608380E-05
         9 ->  136     -.66814553273657E-06
         9 ->  137     -.25783174854590E-05
         9 ->  138     -.64441310905883E-06
         9 ->  139     0.25803699705818E-05
         9 ->  140     -.20688662437569E-05
         9 ->  141     0.12576262375922E-05
         9 ->  142     -.14900212199444E-05
         9 ->  143     0.17538920497264E-05
         9 ->  144     0.26297290531582E-05
         9 ->  145     -.48717507372509E-05
         9 ->  146     -.11501768547318E-05
         9 ->  147     -.12888755848290E-05
         9 ->  148     -.14705544574026E-05
         9 ->  149     -.76573786741311E-07
         9 ->  150     -.10396836584888E-05
         9 ->  151     0.83236071012887E-06
         9 ->  152     0.30225744224372E-05
         9 ->  153     -.13670110999347E-05
         9 ->  154     -.67821140823748E-06
         9 ->  155     0.76714523806269E-06
         9 ->  156     0.28030934621728E-05
         9 ->  157     0.35587977381420E-05
         9 ->  158     0.22690521254563E-06
         9 ->  159     0.78921375629257E-07
         9 ->  160     -.20976536967751E-05
         9 ->  162     0.68797146917996E-06
         9 ->  163     0.87485009119920E-06
         9 ->  164     -.38667968710433E-05
         9 ->  165     -.16691960522517E-05
         9 ->  166     -.27832797841303E-06
         9 ->  167     0.17904814217137E-05
         9 ->  168     -.71526214811605E-06
         9 ->  169     -.84436670383475E-06
         9 ->  170     -.50292895689134E-07
         9 ->  171     -.43333017774482E-06
         9 ->  172     -.15437556975564E-05
         9 ->  173     -.66968245393457E-06
         9 ->  174     -.66512903205791E-06
         9 ->  177     0.26636580092930E-05
         9 ->  181     0.63305431666308E-06
         9 ->  182     -.14602266057221E-05
         9 ->  183     0.46400722488248E-06
         9 ->  184     -.54912997748277E-06
         9 ->  185     0.78748581531296E-06
         9 ->  187     0.10734988062855E-05
         9 ->  188     -.11228084282942E-06
         9 ->  189     -.22923211411682E-05
         9 ->  190     0.71354561162927E-06
         9 ->  191     -.36176254517062E-06
         9 ->  193     0.79028034595788E-06
        10 ->   25     0.10394655530504E-04
        10 ->   26     -.22772620965790E-04
        10 ->   27     -.12773243374003E-04
        10 ->   28     0.17603442100100E-05
        10 ->   29     0.57465706390993E-04
        10 ->   30     0.71660721891087E-04
        10 ->   31     0.42421169455894E-04
        10 ->   32     0.49210889029948E-04
        10 ->   33     0.15629627341161E-04
        10 ->   34     0.47314119501387E-04
        10 ->   35     -.26202867054652E-05
        10 ->   36     0.13265668240763E-04
        10 ->   37     -.11522664679366E-04
        10 ->   38     0.74775110145175E-04
        10 ->   39     -.84856528552968E-05
        10 ->   40     -.81624713292598E-04
        10 ->   41     0.21667285519369E-04
        10 ->   42     0.10645168642843E-04
        10 ->   43     -.37399173554273E-04
        10 ->   44     -.26148180073233E-04
        10 ->   45     0.15234374164331E-04
        10 ->   46     0.93638688131672E-04
        10 ->   47     -.10353279791676E-03
        10 ->   48     -.13672222648436E-03
        10 ->   49     0.48307422662068E-05
        10 ->   50     0.84567788287438E-04
        10 ->   51     0.11066880939875E-04
        10 ->   52     0.10850124861519E-03
        10 ->   53     -.13708331148043E-04
        10 ->   54     -.18531055904338E-04
        10 ->   55     -.46859752004259E-04
        10 ->   56     0.57142948257461E-04
        10 ->   57     0.12252065651322E-04
        10 ->   58     0.23011720740641E-04
        10 ->   59     -.33477442536110E-04
        10 ->   60     0.11770027646004E-04
        10 ->   61     -.30596709200499E-04
        10 ->   62     0.46039989457901E-04
        10 ->   63     -.27613275185964E-04
        10 ->   64     -.19789687018351E-04
        10 ->   65     -.35798065059147E-04
        10 ->   66     0.91039737959324E-05
        10 ->   67     -.19079862350436E-04
        10 ->   68     0.93186662062533E-05
        10 ->   69     0.42735819525899E-05
        10 ->   70     0.57455956688434E-05
        10 ->   71     -.22571405466686E-04
        10 ->   72     -.11658169578252E-04
        10 ->   73     -.88605094098549E-05
        10 ->   74     0.11033725963137E-05
        10 ->   75     -.14291827721291E-04
        10 ->   76     -.38105878847204E-05
        10 ->   77     -.12335854230851E-04
        10 ->   78     0.99313181208866E-05
        10 ->   79     0.30706115946696E-04
        10 ->   80     -.58855740410143E-05
        10 ->   81     0.36167225221506E-04
        10 ->   82     -.11134398596179E-04
        10 ->   83     0.16127125390902E-04
        10 ->   84     -.14345015385603E-05
        10 ->   85     0.31855298185136E-07
        10 ->   86     0.25607719798301E-04
        10 ->   87     0.18271464740119E-05
        10 ->   88     0.16370677967000E-04
        10 ->   89     -.47922721503243E-04
        10 ->   90     0.22765434799237E-04
        10 ->   91     0.46929497289253E-04
        10 ->   92     -.17894674897822E-04
        10 ->   93     0.30387839063448E-04
        10 ->   94     0.25282981772714E-04
        10 ->   95     0.78405416339175E-05
        10 ->   96     0.95934441961888E-05
        10 ->   97     -.81496948551983E-05
        10 ->   98     -.16138915140806E-04
        10 ->   99     0.20746436053154E-04
        10 ->  100     -.23452890575922E-04
        10 ->  101     0.21735757256637E-04
        10 ->  102     0.94786281608026E-05
        10 ->  103     -.11758124350308E-04
        10 ->  104     0.31626658359507E-04
        10 ->  105     0.78080518608631E-05
        10 ->  106     0.31467510043392E-05
        10 ->  107     -.73901273522505E-06
        10 ->  108     -.53087045750957E-05
        10 ->  109     -.55851401123376E-05
        10 ->  110     0.90686070720408E-05
        10 ->  111     -.33006792658309E-05
        10 ->  112     0.11615326854463E-04
        10 ->  113     0.10546542115116E-04
        10 ->  114     0.24404873791361E-05
        10 ->  115     0.49940452181269E-05
        10 ->  116     -.33095127767579E-05
        10 ->  117     -.32365253348742E-05
        10 ->  118     0.45716132253894E-06
        10 ->  119     0.26146136634940E-05
        10 ->  120     -.36574877829659E-05
        10 ->  121     0.14273448065619E-06
        10 ->  122     0.67232940234062E-05
        10 ->  123     -.50488474881432E-05
        10 ->  124     0.14988427106478E-04
        10 ->  125     0.19680643879776E-05
        10 ->  126     0.14235583714791E-05
        10 ->  127     -.48212549427698E-06
        10 ->  128     0.52498867680093E-05
        10 ->  129     -.29364909607303E-05
        10 ->  130     -.35941670707264E-05
        10 ->  131     -.33794074561870E-05
        10 ->  132     -.45107011503308E-06
        10 ->  133     -.21883710355448E-05
        10 ->  134     0.16035734810883E-05
        10 ->  135     -.24135144839560E-05
        10 ->  136     -.43688415164122E-05
        10 ->  137     0.66644748587759E-05
        10 ->  138     0.11985902646685E-04
        10 ->  139     0.17063862123851E-05
        10 ->  140     -.11449381365143E-05
        10 ->  141     0.15806742342515E-05
        10 ->  142     0.43374498603940E-05
        10 ->  143     0.20151374708479E-04
        10 ->  144     0.10690232194092E-04
        10 ->  145     0.22805465868442E-06
        10 ->  146     0.21126568133684E-05
        10 ->  147     0.44025052307298E-05
        10 ->  148     -.62835031987653E-05
        10 ->  149     -.47865010992245E-06
        10 ->  150     0.29929735535851E-05
        10 ->  151     -.26527007700600E-05
        10 ->  152     0.38513220649465E-05
        10 ->  153     -.42792473498816E-05
        10 ->  154     -.51210966208808E-05
        10 ->  155     0.30964386256125E-05
        10 ->  156     -.38808793076195E-05
        10 ->  157     -.50443695465694E-06
        10 ->  158     0.71492445660058E-06
        10 ->  159     0.36427836611017E-05
        10 ->  160     0.45879830106498E-05
        10 ->  161     -.38660912809235E-05
        10 ->  162     -.25767664000721E-05
        10 ->  163     0.30754180185254E-06
        10 ->  164     0.30653227735150E-06
        10 ->  165     -.12270592520512E-05
        10 ->  166     0.63011610634282E-06
        10 ->  167     -.40585380440415E-05
        10 ->  168     0.23019090707996E-05
        10 ->  169     0.17445954296854E-05
        10 ->  170     -.10456809561409E-05
        10 ->  171     0.47529157532950E-06
        10 ->  172     0.23338865015175E-05
        10 ->  173     -.32467878476035E-05
        10 ->  174     0.17854260565501E-05
        10 ->  175     0.40503261260660E-05
        10 ->  176     -.12080843563080E-05
        10 ->  177     -.45829540656739E-06
        10 ->  178     -.79419549276455E-06
        10 ->  179     0.45388305143000E-05
        10 ->  180     0.22952424684496E-05
        10 ->  181     0.76484241397315E-06
        10 ->  182     0.48977604459096E-06
        10 ->  184     -.43279237804274E-06
        10 ->  185     -.29069306237412E-06
        10 ->  186     -.28576929570490E-05
        10 ->  187     -.17831528614909E-05
        10 ->  188     -.17007014121256E-07
        10 ->  189     0.26725339740762E-06
        10 ->  190     0.13490169227750E-05
        10 ->  191     0.56800911417370E-06
        10 ->  192     -.21381321759283E-07
        11 ->   25     0.61766164142967E-05
        11 ->   26     -.39616228305625E-06
        11 ->   27     -.55587456498762E-05
        11 ->   28     -.47757986495794E-04
        11 ->   29     -.19002047904836E-03
        11 ->   30     -.65841413471721E-04
        11 ->   31     -.79032780047922E-03
        11 ->   32     0.11613163942821E-02
        11 ->   33     -.20005629018142E-04
        11 ->   34     0.16718765770487E-06
        11 ->   35     -.71403206438323E-05
        11 ->   36     -.30657650025699E-04
        11 ->   37     0.38168907196879E-03
        11 ->   38     -.32373371849222E-03
        11 ->   39     0.25814285604863E-03
        11 ->   40     -.66336141343348E-03
        11 ->   41     -.45609215618393E-04
        11 ->   42     0.32453142930018E-05
        11 ->   43     -.14911754925272E-03
        11 ->   44     -.14781168840074E-03
        11 ->   45     0.55990439902429E-05
        11 ->   46     0.12456895480806E-03
        11 ->   47     -.28191043122737E-03
        11 ->   48     -.27501122357295E-03
        11 ->   49     -.28298219912063E-03
        11 ->   50     -.20685453859854E-04
        11 ->   51     -.26897310548028E-04
        11 ->   52     0.90716180856470E-04
        11 ->   53     0.29715385662765E-04
        11 ->   54     -.18327173273786E-03
        11 ->   55     -.14701275427622E-03
        11 ->   56     0.16494592144684E-03
        11 ->   57     -.17470036002598E-03
        11 ->   58     0.37677360645043E-04
        11 ->   59     -.18459312792167E-04
        11 ->   60     0.29133545681181E-04
        11 ->   61     0.71979904329051E-04
        11 ->   62     -.53554063898390E-04
        11 ->   63     0.10606696366313E-03
        11 ->   64     -.24404133092330E-05
        11 ->   65     0.16345418122120E-04
        11 ->   66     -.27259256859631E-04
        11 ->   67     -.16317255303688E-04
        11 ->   68     -.45329435393155E-05
        11 ->   69     0.36236591108323E-04
        11 ->   70     0.18283768461612E-04
        11 ->   71     -.85023990790093E-05
        11 ->   72     0.10907638888782E-04
        11 ->   73     -.11022328485050E-04
        11 ->   74     0.64179892527796E-05
        11 ->   75     0.30035574793723E-04
        11 ->   76     -.38988490245968E-04
        11 ->   77     0.11166797068356E-04
        11 ->   78     0.87264014308074E-05
        11 ->   79     0.19652241432660E-04
        11 ->   80     -.20507328613582E-04
        11 ->   81     0.37179658042592E-05
        11 ->   82     -.37004513868841E-04
        11 ->   83     -.68605010593569E-05
        11 ->   84     -.26377182109813E-07
        11 ->   85     -.41580327328792E-04
        11 ->   86     0.27882481730326E-04
        11 ->   87     -.23917014688779E-04
        11 ->   88     -.74598487896432E-06
        11 ->   89     -.78776250447298E-04
        11 ->   90     0.63899229673552E-04
        11 ->   91     0.68219121583559E-04
        11 ->   92     -.47562575837714E-04
        11 ->   93     -.19313333714281E-04
        11 ->   94     0.13066987053739E-04
        11 ->   95     -.14619957864206E-04
        11 ->   96     0.85915578031404E-05
        11 ->   97     0.13440356421180E-04
        11 ->   98     -.31746163739267E-04
        11 ->   99     0.15749488098797E-04
        11 ->  100     0.71413555514141E-05
        11 ->  101     0.11123255719081E-04
        11 ->  102     0.10668772195485E-04
        11 ->  103     -.13410680294572E-04
        11 ->  104     0.13809462247472E-04
        11 ->  105     0.11171599906779E-04
        11 ->  106     -.47152470847872E-07
        11 ->  107     -.56855710196126E-05
        11 ->  108     -.21465113616688E-04
        11 ->  109     -.73729458579041E-05
        11 ->  110     0.10043141886264E-04
        11 ->  111     0.21858617677284E-04
        11 ->  112     -.12187952218075E-05
        11 ->  113     0.62604641053554E-05
        11 ->  114     -.85876921937349E-05
        11 ->  115     -.34399487465128E-05
        11 ->  116     0.32310090066537E-05
        11 ->  117     0.67971495851391E-05
        11 ->  118     0.60303131981527E-05
        11 ->  119     0.29451989529958E-05
        11 ->  120     -.48941484890525E-05
        11 ->  121     -.57712964485677E-05
        11 ->  122     0.15081348843283E-05
        11 ->  123     0.68816583213029E-05
        11 ->  124     -.27182798362584E-05
        11 ->  125     0.33836995341085E-05
        11 ->  126     0.27044527309078E-05
        11 ->  127     -.11617714951835E-05
        11 ->  128     0.42720792309859E-06
        11 ->  129     -.43171649291287E-05
        11 ->  130     -.92215123693288E-05
        11 ->  131     0.50627479706460E-06
        11 ->  132     0.30444227500440E-05
        11 ->  133     0.53355684443551E-05
        11 ->  134     -.11149624838576E-05
        11 ->  135     0.68061097969496E-06
        11 ->  136     0.78560627072200E-05
        11 ->  137     0.25180434199429E-05
        11 ->  138     -.76062611991370E-07
        11 ->  139     -.40191050152445E-05
        11 ->  140     -.13637647923671E-05
        11 ->  141     0.44784604447576E-05
        11 ->  142     -.43265047338663E-05
        11 ->  143     0.22833195072861E-05
        11 ->  144     0.32076188784620E-06
        11 ->  145     -.32208263400134E-05
        11 ->  146     0.12421310066597E-05
        11 ->  147     0.18720931735049E-05
        11 ->  148     -.36463403028265E-05
        11 ->  149     0.31967639022208E-06
        11 ->  150     0.16984964821546E-05
        11 ->  151     0.25442684168788E-05
        11 ->  152     -.24283307764405E-05
        11 ->  153     -.26192210355529E-06
        11 ->  154     0.29864757508989E-05
        11 ->  155     -.40221153208603E-05
        11 ->  156     -.17753197198958E-05
        11 ->  157     0.18518890041888E-05
        11 ->  158     0.14474963839098E-05
        11 ->  159     0.57604056152354E-05
        11 ->  160     0.67175234184669E-05
        11 ->  161     -.15410758105310E-05
        11 ->  162     0.54274693378655E-06
        11 ->  163     -.25750462057884E-05
        11 ->  164     0.55946433592788E-05
        11 ->  165     -.11077470094785E-05
        11 ->  166     -.27427452114944E-06
        11 ->  167     -.27015982798544E-05
        11 ->  168     -.53291438588480E-05
        11 ->  169     0.21291418748730E-06
        11 ->  170     -.74737459489888E-06
        11 ->  171     -.44069834259120E-06
        11 ->  172     0.47913158109254E-05
        11 ->  173     -.38462460643569E-05
        11 ->  174     0.19234860889315E-05
        11 ->  175     0.56446150263490E-06
        11 ->  176     -.14400154482967E-06
        11 ->  177     -.83185200960679E-06
        11 ->  178     -.64300212644721E-06
        11 ->  179     0.36848848698542E-06
        11 ->  180     -.28019208190614E-06
        11 ->  181     0.12351059205974E-05
        11 ->  182     0.45167815185201E-07
        11 ->  183     0.18967175400079E-06
        11 ->  184     0.52331974168184E-08
        11 ->  185     0.12693715945309E-06
        11 ->  186     -.12818013936025E-05
        11 ->  187     -.27462761550716E-05
        11 ->  188     0.64161354181490E-06
        11 ->  189     0.29091536146522E-05
        11 ->  190     -.10285184035614E-06
        11 ->  193     -.62834328099773E-06
        12 ->   25     0.60507379345241E-04
        12 ->   26     -.42240534347113E-04
        12 ->   27     -.47944634868341E-04
        12 ->   28     -.20908474440114E-04
        12 ->   29     -.11345835424349E-04
        12 ->   30     0.64622149503929E-04
        12 ->   31     -.23929921288704E-03
        12 ->   32     0.71012629234662E-03
        12 ->   33     -.16831007128378E-04
        12 ->   34     0.13994963198649E-03
        12 ->   35     -.76700609736303E-05
        12 ->   36     -.67963601476180E-05
        12 ->   37     0.80232181656507E-04
        12 ->   38     -.49367161154469E-04
        12 ->   39     0.31322868263603E-03
        12 ->   40     -.32388817468678E-03
[...]
 183        4S       -.29430944708400E+01 -.42567601985903E+00 0.13989101043080E+01 0.81312746780376E+00 0.14779376863956E+01
 184        5PX      0.76370538799795E-02 0.74725781580289E-02 -.32020089996720E-03 0.28700635407765E-02 -.10214095649361E-01
 185        5PY      -.12908043024176E-01 0.69564924889350E-02 -.26534935897845E-02 -.20228820037833E-02 0.11945778995848E-01
 186        5PZ      0.11525471258464E-01 -.52492768220112E-02 -.45181816129354E-02 -.45063118997426E-02 -.52334829183364E-02
 187 9   H  1S       -.32218983316439E-02 0.60817637993599E-02 -.72551641500074E-02 0.47956248834731E-03 -.31256733180780E-02
 188        2S       -.31572026056098E-01 0.19137175172605E-01 0.57451687935750E-01 0.56058032335248E-01 0.68953304414351E-01
 189        3S       0.22644672427543E+00 -.37872813637926E-01 -.10283378214963E+00 0.11484399269422E+00 -.24425137172876E+00
 190        4S       0.12563953150964E+01 0.11206642969950E+01 -.12409229634533E+01 -.36760469592280E+01 -.12060334659225E+01
 191        5PX      -.14097754628959E-01 -.10118537419132E-02 0.86766028053578E-04 -.14910690747054E-02 0.12168937872238E-02
 192        5PY      -.52336486976890E-02 -.95724897130123E-03 -.37331722763497E-02 -.40536183034256E-02 -.64044826802397E-02
 193        5PZ      0.17669252914531E-01 0.61274728345122E-02 0.81814245988757E-02 -.13161718810941E-01 0.85510443006743E-02
 194 10  H  1S       -.21266568718477E-01 0.13006680962141E-01 -.79419949897725E-02 -.67621042915850E-02 -.24881910554258E-02
 195        2S       0.11337359142453E+00 0.23407819433819E-01 -.12648279524656E-01 0.32250279918939E-01 -.53843553430281E-01
 196        3S       -.57384237421978E+00 0.27932240448327E-02 -.37849205725200E+00 -.23507885071722E+00 0.53468043763134E-01
 197        4S       -.21859688878319E+01 0.12364486198476E+00 -.10555799298812E+01 0.30274981510449E+01 -.17088981492406E+01
 198        5PX      -.64029888313997E-02 0.77939486304206E-02 0.39288789505255E-02 -.55421755511674E-03 0.18409846191829E-01
 199        5PY      -.58788168717820E-02 0.62854016714544E-02 -.37036052233742E-02 -.70590236731320E-02 0.26202181313957E-03
 200        5PZ      0.45642572999239E-01 -.26852225088168E-01 0.20164485519828E-01 0.25281697825002E-01 0.59310930018847E-02
          Condensed to atoms (all electrons):
              1          2          3          4          5          6
     1  N    0.047924  -0.439656   0.226638  -0.436796   0.300560   0.441194
     2  C   -0.439656   0.605892  -0.053854   0.208300  -0.097116  -0.590758
     3  C    0.226638  -0.053854   0.018435  -0.035454   0.025467  -0.006022
     4  C   -0.436796   0.208300  -0.035454   0.161749  -0.060803  -0.188558
     5  C    0.300560  -0.097116   0.025467  -0.060803   0.007140   0.053432
     6  C    0.441194  -0.590758  -0.006022  -0.188558   0.053432   0.645058
     7  N   -0.079132   0.358816  -0.157614   0.323425  -0.215493  -0.362029
     8  H    0.017203  -0.018549   0.013193  -0.016920   0.010979   0.011072
     9  H   -0.049778   0.009930  -0.005204  -0.011745   0.011293   0.014334
    10  H    0.011740   0.009273  -0.013020   0.016031  -0.012160  -0.000840
              7          8          9         10
     1  N   -0.079132   0.017203  -0.049778   0.011740
     2  C    0.358816  -0.018549   0.009930   0.009273
     3  C   -0.157614   0.013193  -0.005204  -0.013020
     4  C    0.323425  -0.016920  -0.011745   0.016031
     5  C   -0.215493   0.010979   0.011293  -0.012160
     6  C   -0.362029   0.011072   0.014334  -0.000840
     7  N    0.079144  -0.013575   0.037624  -0.006485
     8  H   -0.013575   0.000098  -0.001765  -0.000146
     9  H    0.037624  -0.001765  -0.012813  -0.000111
    10  H   -0.006485  -0.000146  -0.000111  -0.006473
 Mulliken atomic charges:
              1
     1  N    6.960102
     2  C    6.007722
     3  C    5.987435
     4  C    6.040771
     5  C    5.976701
     6  C    5.983116
     7  N    7.035318
     8  H    0.998409
     9  H    1.008236
    10  H    1.002190
 Sum of Mulliken atomic charges =  47.00000
 Mulliken charges with hydrogens summed into heavy atoms:
              1
     1  N    6.960102
     2  C    6.007722
     3  C    6.985844
     4  C    7.049007
     5  C    6.978890
     6  C    5.983116
     7  N    7.035318
 Sum of Mulliken charges with hydrogens summed into heavy atoms =  47.00000
 Electronic spatial extent (au):  <R**2>=              0.3562
 Charge=              0.0000 electrons
 Dipole moment (field-independent basis, Debye):
    X=             -0.0223    Y=             -0.1179    Z=              0.3053  Tot=              0.3281
 Quadrupole moment (field-independent basis, Debye-Ang):
   XX=              0.0323   YY=             -0.2909   ZZ=             -0.2204
   XY=             -0.3407   XZ=              1.0597   YZ=              0.4874
 Traceless Quadrupole moment (field-independent basis, Debye-Ang):
   XX=              0.1920   YY=             -0.1312   ZZ=             -0.0607
   XY=             -0.3407   XZ=              1.0597   YZ=              0.4874
 Octapole moment (field-independent basis, Debye-Ang**2):
  XXX=              0.7249  YYY=             -3.6991  ZZZ=              6.4683  XYY=             -0.3308
  XXY=             -1.9698  XXZ=              5.2369  XZZ=              0.1491  YZZ=             -1.0354
  YYZ=              3.1172  XYZ=              1.1982
 Hexadecapole moment (field-independent basis, Debye-Ang**3):
 XXXX=             19.4277 YYYY=             -4.3738 ZZZZ=             -8.9593 XXXY=            -10.8986
 XXXZ=             31.9924 YYYX=            -10.0942 YYYZ=              4.2932 ZZZX=             30.6489
 ZZZY=              2.5171 XXYY=              2.1687 XXZZ=              2.7052 YYZZ=             -1.8777
 XXYZ=              2.2610 YYXZ=             12.0898 ZZXY=             -2.7312
 N-N= 2.378363637849D+02 E-N= 3.430568342363D-02  KE=-4.471308446847D-03
 Orbital energies and kinetic energies (alpha):
                                 1                 2
   1         O       0.20915780615359E-34 0.20576160533282E+02
   2         O       0.57354668725153E-34 0.20804247274242E+02
   3         O       0.70959280669817E-34 0.16651717419640E+02
   4         O       0.11633584483560E-33 0.16430288888361E+02
   5         O       0.85834800363748E-33 0.16098259052361E+02
   6         O       0.45983793401495E-32 0.16718146228861E+02
   7         O       0.63838107058618E-31 0.16586125832123E+02
   8         O       0.12719180420096E-07 0.21305840602650E+01
   9         O       0.15196064051810E-07 0.22040087739475E+01
  10         O       0.24519106818910E-07 0.16629546195510E+01
  11         O       0.51166099987052E-07 0.16989778467906E+01
  12         O       0.76320100443685E-07 0.15155816836674E+01
  13         O       0.17614891900456E-06 0.13306808299204E+01
  14         O       0.24393002649232E-06 0.16497567343308E+01
  15         O       0.30742413626123E-06 0.15001608090503E+01
  16         O       0.41744158317951E-06 0.12764105856508E+01
  17         O       0.61997694823248E-06 0.13548566599584E+01
  18         O       0.14290732602445E-05 0.15524153699711E+01
  19         O       0.31711065509332E-05 0.16293010216403E+01
  20         O       0.80305578504410E-05 0.13847884322642E+01
  21         O       0.13166264029337E-04 0.13483323818416E+01
  22         O       0.42212291679640E-04 0.14277293668070E+01
  23         O       0.13225959317356E-02 0.11834151210456E+01
  24         O       0.99861194518874E+00 0.12785293918571E+01
  25         V       0.99861194518874E+00 0.62088344096817E-02
  26         V       0.13225959317356E-02 0.83106398272329E-01
  27         V       0.42212291679607E-04 0.14192986155374E+00
  28         V       0.13166264029297E-04 0.15778149075985E+00
  29         V       0.80305578504300E-05 0.18684540085205E+00
  30         V       0.31711065508127E-05 0.32883899337250E+00
  31         V       0.14290732602374E-05 0.41239936104052E+00
  32         V       0.61997694826240E-06 0.45512818458149E+00
  33         V       0.41744158304167E-06 0.80092590780716E+00
  34         V       0.30742413618101E-06 0.46872879679199E+00
  35         V       0.24393002646972E-06 0.10703889220560E+01
  36         V       0.17614891910049E-06 0.82429186671079E+00
  37         V       0.76320100488001E-07 0.13008035169862E+01
  38         V       0.51166100034412E-07 0.12462622504806E+01
  39         V       0.24519106866852E-07 0.14122348008781E+01
  40         V       0.15196064194608E-07 0.12540047307391E+01
  41         V       0.12719180506474E-07 0.17175934875510E+01
  42         V       0.96116946723589E-15 0.89162173813133E+02
  43         V       0.10673152695535E-16 0.95230134130827E+00
  44         V       0.18580030605011E-17 0.45682877192689E+01
  45         V       0.10890261710969E-17 0.53023324932700E+02
  46         V       0.69808340632375E-18 0.70548456333469E+00
  47         V       0.49651477616978E-18 0.18414351879362E+01
  48         V       0.25531849025865E-18 0.49602926350218E+00
  49         V       0.14692277023708E-18 0.40502140605735E+00
  50         V       0.74458479766162E-19 0.45746685075469E+00
  51         V       0.22774948409926E-19 0.29939751333546E+01
  52         V       0.20420405146974E-19 0.83108725394652E+00
  53         V       0.17470318925504E-19 0.35474605621302E+02
  54         V       0.16890809815561E-19 0.24828761536458E+02
  55         V       0.12239948254760E-19 0.10706840491995E+01
  56         V       0.56577533355966E-20 0.73794824186348E+00
  57         V       0.50659165736286E-20 0.14769415814266E+01
  58         V       0.34136643835133E-20 0.58325346082590E+02
  59         V       0.31663482237101E-20 0.11223552266125E+02
  60         V       0.26717485760666E-20 0.11180094942759E+01
  61         V       0.18042686906037E-20 0.11712814535326E+01
  62         V       0.15546346428197E-20 0.10093978053118E+01
  63         V       0.91049483275730E-21 0.15463480252616E+01
  64         V       0.81715777564626E-21 0.15714613194822E+01
  65         V       0.57154230378035E-21 0.12649709646322E+01
  66         V       0.54562919506461E-21 0.23508042816121E+01
  67         V       0.29558278288531E-21 0.61404482757573E+01
  68         V       0.28528933984023E-21 0.18602490341958E+01
  69         V       0.19763109638707E-21 0.14569051005890E+01
  70         V       0.16556938676864E-21 0.21444305609376E+01
  71         V       0.13807314469050E-21 0.80048228954642E+01
  72         V       0.12025101218320E-21 0.76067023813222E+01
  73         V       0.85507644762530E-22 0.18893010505557E+01
  74         V       0.81829642859622E-22 0.24733265841981E+01
  75         V       0.79066532226648E-22 0.45308147072635E+01
  76         V       0.70911627117459E-22 0.16882459874891E+01
  77         V       0.54924708062587E-22 0.28781061775771E+01
  78         V       0.47631377060433E-22 0.22714694416642E+01
  79         V       0.40125608824968E-22 0.31704980377121E+01
  80         V       0.35032621111801E-22 0.16220099679364E+01
  81         V       0.25998632422447E-22 0.70645001222888E+01
  82         V       0.25694478691296E-22 0.32528754797610E+01
  83         V       0.24788702414832E-22 0.25007485556529E+01
  84         V       0.20403167911017E-22 0.12509987897624E+01
  85         V       0.19314707969887E-22 0.18577605219667E+01
  86         V       0.15583222028331E-22 0.24665398291443E+01
  87         V       0.13050765975675E-22 0.22755147787849E+01
  88         V       0.11565782012354E-22 0.29220339454112E+01
  89         V       0.10498891691052E-22 0.30316261180785E+01
  90         V       0.92759926307320E-23 0.26534647078842E+01
  91         V       0.91200527491750E-23 0.30521988677276E+01
  92         V       0.66831405785065E-23 0.30537800989426E+01
  93         V       0.62843968022584E-23 0.29357411889650E+01
  94         V       0.50711947036881E-23 0.26343266436712E+01
  95         V       0.42963174017465E-23 0.28754344655548E+01
  96         V       0.39963310366557E-23 0.32437468475049E+01
  97         V       0.36317196632067E-23 0.42610692511898E+01
  98         V       0.35016147406119E-23 0.34821258093781E+01
  99         V       0.31852089989117E-23 0.32992958586784E+01
 100         V       0.23981869488171E-23 0.40939422180252E+01
 101         V       0.22753081144425E-23 0.40078751124861E+01
 102         V       0.22025605037188E-23 0.32227360074112E+01
 103         V       0.20899007754031E-23 0.36959816289432E+01
 104         V       0.19404275946995E-23 0.33418932021206E+01
 105         V       0.17296636459081E-23 0.36548656537502E+01
 106         V       0.14567378411217E-23 0.37742620519298E+01
 107         V       0.11218201606909E-23 0.40722120491999E+01
 108         V       0.97606492068676E-24 0.37521451486411E+01
 109         V       0.96936165962561E-24 0.36715700387442E+01
 110         V       0.80549175324069E-24 0.48019656714370E+01
 111         V       0.77084721794732E-24 0.41415230840836E+01
 112         V       0.69607722707712E-24 0.43659978811492E+01
 113         V       0.61927518179350E-24 0.46662605485849E+01
 114         V       0.50076878242848E-24 0.48257984569825E+01
 115         V       0.45039574935225E-24 0.42964358970983E+01
 116         V       0.38505687174903E-24 0.46687117180872E+01
 117         V       0.28531219891581E-24 0.50583207935219E+01
 118         V       0.27598427605292E-24 0.49510575416663E+01
 119         V       0.25908272364277E-24 0.53376778710645E+01
 120         V       0.22217275830599E-24 0.48785306334820E+01
 121         V       0.12799409071036E-24 0.52833579658057E+01
 122         V       0.12100496002967E-24 0.37175359258495E+01
 123         V       0.11179744318247E-24 0.46640537808850E+01
 124         V       0.94974818378137E-25 0.52699637398242E+01
 125         V       0.45241886262660E-25 0.58222161450070E+01
 126         V       0.22422305079160E-25 0.50586705320934E+01
 127         V       0.17453363323664E-36 0.91402182455011E+02
 128         V       -.12447417840489E-25 0.64495653071511E+01
 129         V       -.38646971507946E-25 0.51749234408286E+01
 130         V       -.62436032009777E-25 0.56688565600870E+01
 131         V       -.83089751258353E-25 0.54123122674802E+01
 132         V       -.12433947121652E-24 0.48515207098168E+01
 133         V       -.14673287683665E-24 0.52886786458381E+01
 134         V       -.16248580994193E-24 0.50923402351432E+01
 135         V       -.19389921113572E-24 0.51011210215175E+01
 136         V       -.22267694198238E-24 0.51942584841689E+01
 137         V       -.29570125953835E-24 0.49187988365709E+01
 138         V       -.35479161626987E-24 0.46741455407293E+01
 139         V       -.47614646228918E-24 0.44939485083029E+01
 140         V       -.55572041273354E-24 0.39892816693879E+01
 141         V       -.55948186153241E-24 0.43861670677030E+01
 142         V       -.61251855511522E-24 0.41696408672273E+01
 143         V       -.64996908294819E-24 0.43144518294989E+01
 144         V       -.79665968701968E-24 0.43020976704821E+01
 145         V       -.86177543153794E-24 0.39789676898897E+01
 146         V       -.10074557692611E-23 0.39928760774993E+01
 147         V       -.11730133955259E-23 0.36356733028135E+01
 148         V       -.14547724058672E-23 0.36187080105675E+01
 149         V       -.15305288264138E-23 0.40521390292028E+01
 150         V       -.17631844464832E-23 0.36233079939580E+01
 151         V       -.20147445716865E-23 0.38663116321198E+01
 152         V       -.25987907366993E-23 0.35983538057555E+01
 153         V       -.26429416520968E-23 0.32835822007150E+01
 154         V       -.35275234861200E-23 0.29772474448275E+01
 155         V       -.37567261738716E-23 0.29449322963701E+01
 156         V       -.38962029430416E-23 0.29260908373662E+01
 157         V       -.51903642311072E-23 0.33998353993185E+01
 158         V       -.55226089778210E-23 0.29978091380994E+01
 159         V       -.66160155062384E-23 0.31086931126306E+01
 160         V       -.68634927880875E-23 0.23638539475515E+01
 161         V       -.96277920141036E-23 0.26561786400749E+01
 162         V       -.96766527239203E-23 0.31930270231285E+01
 163         V       -.10395604602869E-22 0.21605110392189E+01
 164         V       -.14702274849021E-22 0.50880292772782E+01
 165         V       -.15689555595771E-22 0.27441552667830E+01
 166         V       -.21965176084845E-22 0.28489389731952E+01
 167         V       -.24309276332083E-22 0.26638985412077E+01
 168         V       -.25895322629799E-22 0.27798043294695E+01
 169         V       -.30564823938121E-22 0.49489261182626E+01
 170         V       -.43358450636990E-22 0.58785185934109E+01
 171         V       -.52549281229992E-22 0.37236307178386E+01
 172         V       -.54313713991356E-22 0.32951263476312E+01
 173         V       -.56563178913006E-22 0.21952975312998E+01
 174         V       -.10461726073267E-21 0.22664113765692E+01
 175         V       -.10991225277863E-21 0.52992711758129E+01
 176         V       -.13310596895219E-21 0.14133375152245E+01
 177         V       -.13613667749532E-21 0.17965161023562E+01
 178         V       -.17232355113816E-21 0.14112089872650E+01
 179         V       -.21625981977330E-21 0.17761054183286E+01
 180         V       -.29620035953110E-21 0.14036460035837E+01
 181         V       -.44283639014139E-21 0.14522181826726E+01
 182         V       -.68934066203496E-21 0.17539257243453E+01
 183         V       -.85236794616192E-21 0.94710176173112E+00
 184         V       -.17905541895907E-20 0.10017125235616E+01
 185         V       -.21960096253445E-20 0.11435820482707E+01
 186         V       -.50350124345005E-20 0.17257988986229E+02
 187         V       -.55280175138240E-20 0.45183854313801E+02
 188         V       -.60167157510307E-20 0.91812898089483E+00
 189         V       -.85254289963324E-20 0.13068777206607E+01
 190         V       -.16051966372259E-19 0.16045106069281E+01
 191         V       -.24163990174987E-19 0.55153215843635E+02
 192         V       -.26288734888356E-19 0.56474603229185E+01
 193         V       -.78899776677815E-19 0.45479501832462E+00
 194         V       -.15281921287120E-18 0.40499509469192E+00
 195         V       -.30334636198417E-18 0.32726942873896E+00
 196         V       -.63838913377544E-18 0.82902518595731E+00
 197         V       -.12931785314786E-17 0.48626400484632E+00
 198         V       -.16907571158712E-16 0.20747407202740E+00
 199         V       -.44901708046861E-16 0.15523542396826E+01
 200         V       -.16647530136566E-15 0.27495253384328E+01
 Total kinetic energy from orbitals= 2.999868578349D+02
 Leave Link  601 at Thu May 25 09:20:25 2023, MaxMem= 3276800000 cpu:       1.7
 (Enter /local/g09-source/g09/l9999.exe)

 Test job not archived.
 1\1\GINC-WUX11\SP\RTD-wB97XD-FC\Gen\C5H3N2(1-)\ISSLERK\25-May-2023\0\\
 #p TD(nstates=1) wB97XD/GEN 6D Iop(6/7=3) Iop(9/40=14) scf(maxcyc=200,
 conver=8) nosym Guess(Read,TCheck) GFInput Pop=(minimal,nto,savento) D
 ensity=(transition=1)\\Comment\\-1,1\N,0,0.939594089,-0.844223896,-0.0
 59309281\C,0,-0.245140838,-0.124274708,0.112848964\C,0,0.071290795,1.2
 69089603,-0.004959183\C,0,1.49855523,1.310506673,0.010778654\C,0,1.879
 816934,-0.040733414,-0.02969906\C,0,-1.539363774,-0.720895598,-0.03929
 7746\N,0,-2.693594257,-0.976127237,0.000934058\H,0,-0.716813032,2.1401
 84048,-0.094837956\H,0,1.760160342,2.437612847,0.395660357\H,0,3.05570
 5435,-0.391812998,-0.081397576\\Version=EM64L-G09RevA.02\HF=-301.77186
 54\RMSD=3.517e-09\PG=C01 [X(C5H3N2)]\\@


 NEVER LISTEN TO CRITICISM
 OR YOU'LL BE DOIN' EVERYBODY ELSE'S THING BUT BUT YOUR OWN.

                                               -- ANDY CAPP
 Job cpu time:  0 days  0 hours 28 minutes 57.0 seconds.
 File lengths (MBytes):  RWF=     42 Int=      0 D2E=      0 Chk=      4 Scr=      1
 Normal termination of Gaussian 09 at Thu May 25 09:20:25 2023.
