 Entering Gaussian System, Link 0=g09
 Initial command:
 /local/g09-source/g09/l1.exe /scratch/1505212/TRAJ_40/Gau-3122.inp -scrdir=/scratch/1505212/TRAJ_40/
 Entering Link 1 = /local/g09-source/g09/l1.exe PID=      3124.
  
 Copyright (c) 1988,1990,1992,1993,1995,1998,2003,2009, Gaussian, Inc.
                  All Rights Reserved.
  
 This is part of the Gaussian(R) 09 program.  It is based on
 the Gaussian(R) 03 system (copyright 2003, Gaussian, Inc.),
 the Gaussian(R) 98 system (copyright 1998, Gaussian, Inc.),
 the Gaussian(R) 94 system (copyright 1995, Gaussian, Inc.),
 the Gaussian 92(TM) system (copyright 1992, Gaussian, Inc.),
 the Gaussian 90(TM) system (copyright 1990, Gaussian, Inc.),
 the Gaussian 88(TM) system (copyright 1988, Gaussian, Inc.),
 the Gaussian 86(TM) system (copyright 1986, Carnegie Mellon
 University), and the Gaussian 82(TM) system (copyright 1983,
 Carnegie Mellon University). Gaussian is a federally registered
 trademark of Gaussian, Inc.
  
 This software contains proprietary and confidential information,
 including trade secrets, belonging to Gaussian, Inc.
  
 This software is provided under written license and may be
 used, copied, transmitted, or stored only in accord with that
 written license.
  
 The following legend is applicable only to US Government
 contracts under FAR:
  
                    RESTRICTED RIGHTS LEGEND
  
 Use, reproduction and disclosure by the US Government is
 subject to restrictions as set forth in subparagraphs (a)
 and (c) of the Commercial Computer Software - Restricted
 Rights clause in FAR 52.227-19.
  
 Gaussian, Inc.
 340 Quinnipiac St., Bldg. 40, Wallingford CT 06492
  
  
 ---------------------------------------------------------------
 Warning -- This program may not be used in any manner that
 competes with the business of Gaussian, Inc. or will provide
 assistance to any competitor of Gaussian, Inc.  The licensee
 of this program is prohibited from giving any competitor of
 Gaussian, Inc. access to this program.  By using this program,
 the user acknowledges that Gaussian, Inc. is engaged in the
 business of creating and licensing software in the field of
 computational chemistry and represents and warrants to the
 licensee that it is not a competitor of Gaussian, Inc. and that
 it will not use this program in any manner prohibited above.
 ---------------------------------------------------------------
  

 Cite this work as:
 Gaussian 09, Revision A.02,
 M. J. Frisch, G. W. Trucks, H. B. Schlegel, G. E. Scuseria, 
 M. A. Robb, J. R. Cheeseman, G. Scalmani, V. Barone, B. Mennucci, 
 G. A. Petersson, H. Nakatsuji, M. Caricato, X. Li, H. P. Hratchian, 
 A. F. Izmaylov, J. Bloino, G. Zheng, J. L. Sonnenberg, M. Hada, 
 M. Ehara, K. Toyota, R. Fukuda, J. Hasegawa, M. Ishida, T. Nakajima, 
 Y. Honda, O. Kitao, H. Nakai, T. Vreven, J. A. Montgomery, Jr., 
 J. E. Peralta, F. Ogliaro, M. Bearpark, J. J. Heyd, E. Brothers, 
 K. N. Kudin, V. N. Staroverov, R. Kobayashi, J. Normand, 
 K. Raghavachari, A. Rendell, J. C. Burant, S. S. Iyengar, J. Tomasi, 
 M. Cossi, N. Rega, J. M. Millam, M. Klene, J. E. Knox, J. B. Cross, 
 V. Bakken, C. Adamo, J. Jaramillo, R. Gomperts, R. E. Stratmann, 
 O. Yazyev, A. J. Austin, R. Cammi, C. Pomelli, J. W. Ochterski, 
 R. L. Martin, K. Morokuma, V. G. Zakrzewski, G. A. Voth, 
 P. Salvador, J. J. Dannenberg, S. Dapprich, A. D. Daniels, 
 O. Farkas, J. B. Foresman, J. V. Ortiz, J. Cioslowski, 
 and D. J. Fox, Gaussian, Inc., Wallingford CT, 2009.
 
 ******************************************
 Gaussian 09:  EM64L-G09RevA.02 11-Jun-2009
                26-May-2023 
 ******************************************
 %Chk=neu.chk
 %Nproc=10
 Will use up to   10 processors via shared memory.
 %Mem=25000Mb
 ----------------------------------------------------------------------
 #p wB97XD/GEN 6D Iop(6/7=3) Iop(9/40=14) scf(maxcyc=200,conver=8) nosy
 m Guess(Read,TCheck) GFInput
 ----------------------------------------------------------------------
 1/38=1/1;
 2/12=2,15=1,17=6,18=5,40=1/2;
 3/5=7,8=2,11=2,16=1,24=10,25=1,30=1,74=-58/1,2,3;
 4/5=102/1;
 5/5=2,6=8,7=200/2;
 6/7=3,8=2,9=2,10=2,28=1/1;
 99/5=1,9=1/99;
 Leave Link    1 at Fri May 26 03:03:34 2023, MaxMem= 3276800000 cpu:       0.5
 (Enter /local/g09-source/g09/l101.exe)
 -------
 Comment
 -------
 Symbolic Z-matrix:
 Charge =  0 Multiplicity = 2
 N                     0.95163  -0.92919  -0.00112 
 C                    -0.24119  -0.11434   0.05465 
 C                     0.05983   1.26208  -0.00073 
 C                     1.35732   1.3605    0.06445 
 C                     1.94218  -0.01231  -0.05537 
 C                    -1.57106  -0.61609  -0.0183 
 N                    -2.67027  -1.02425  -0.01733 
 H                    -0.55125   2.23674   0.01385 
 H                     2.42661   1.96613   0.01273 
 H                     3.13941  -0.38545  -0.30274 
 
 NAtoms=     10 NQM=     10 NQMF=      0 NMic=      0 NMicF=      0 NTot=     10.
                    Isotopes and Nuclear Properties:
 (Nuclear quadrupole moments (NQMom) in fm**2, nuclear magnetic moments (NMagM)
  in nuclear magnetons)

  Atom         1           2           3           4           5           6           7           8           9          10
 IAtWgt=          14          12          12          12          12          12          14           1           1           1
 AtmWgt=  14.0030740  12.0000000  12.0000000  12.0000000  12.0000000  12.0000000  14.0030740   1.0078250   1.0078250   1.0078250
 NucSpn=           2           0           0           0           0           0           2           1           1           1
 AtZEff=   0.0000000   0.0000000   0.0000000   0.0000000   0.0000000   0.0000000   0.0000000   0.0000000   0.0000000   0.0000000
 NQMom=    2.0440000   0.0000000   0.0000000   0.0000000   0.0000000   0.0000000   2.0440000   0.0000000   0.0000000   0.0000000
 NMagM=    0.4037610   0.0000000   0.0000000   0.0000000   0.0000000   0.0000000   0.4037610   2.7928460   2.7928460   2.7928460
 Leave Link  101 at Fri May 26 03:03:34 2023, MaxMem= 3276800000 cpu:       1.1
 (Enter /local/g09-source/g09/l202.exe)
                          Input orientation:                          
 ---------------------------------------------------------------------
 Center     Atomic      Atomic             Coordinates (Angstroms)
 Number     Number       Type             X           Y           Z
 ---------------------------------------------------------------------
      1          7           0        0.951626   -0.929187   -0.001118
      2          6           0       -0.241188   -0.114338    0.054647
      3          6           0        0.059829    1.262077   -0.000726
      4          6           0        1.357320    1.360496    0.064445
      5          6           0        1.942177   -0.012306   -0.055372
      6          6           0       -1.571064   -0.616094   -0.018299
      7          7           0       -2.670272   -1.024247   -0.017329
      8          1           0       -0.551251    2.236738    0.013852
      9          1           0        2.426613    1.966127    0.012733
     10          1           0        3.139415   -0.385453   -0.302741
 ---------------------------------------------------------------------
                    Distance matrix (angstroms):
                    1          2          3          4          5
     1  N    0.000000
     2  C    1.445647   0.000000
     3  C    2.365785   1.410034   0.000000
     4  C    2.326270   2.174962   1.302850   0.000000
     5  C    1.350854   2.188515   2.273823   1.496996   0.000000
     6  C    2.542103   1.423253   2.487498   3.534004   3.564940
     7  N    3.623182   2.594911   3.561039   4.681366   4.722305
     8  H    3.504561   2.371785   1.150476   2.100715   3.358597
     9  H    3.249403   3.383379   2.469319   1.229980   2.038017
    10  H    2.274432   3.410235   3.505626   2.521711   1.278205
                    6          7          8          9         10
     6  C    0.000000
     7  N    1.172539   0.000000
     8  H    3.029802   3.889119   0.000000
     9  H    4.759228   5.909439   2.990135   0.000000
    10  H    4.724692   5.851665   4.538406   2.477406   0.000000
 Symmetry turned off by external request.
 Stoichiometry    C5H3N2(2)
 Framework group  C1[X(C5H3N2)]
 Deg. of freedom    24
 Full point group                 C1      NOp   1
 Rotational constants (GHZ):      8.6350462      2.0198445      1.6388614
 Leave Link  202 at Fri May 26 03:03:34 2023, MaxMem= 3276800000 cpu:       0.0
 (Enter /local/g09-source/g09/l301.exe)
 General basis read from cards:  (6D, 7F)
 Centers:   8  9 10
 S 3 1.0
     Exponent=  3.3865000000D+01 Coefficients=  2.5493800000D-02
     Exponent=  5.0947900000D+00 Coefficients=  1.9037300000D-01
     Exponent=  1.1587900000D+00 Coefficients=  8.5216100000D-01
 S 1 1.0
     Exponent=  3.2584000000D-01 Coefficients=  1.0000000000D+00
 S 1 1.0
     Exponent=  1.0274100000D-01 Coefficients=  1.0000000000D+00
 S 1 1.0
     Exponent=  3.6000000000D-02 Coefficients=  1.0000000000D+00
 P 1 1.0
     Exponent=  7.5000000000D-01 Coefficients=  1.0000000000D+00
 ****
 Centers:   2  3  4  5  6
 S 6 1.0
     Exponent=  4.5632400000D+03 Coefficients=  1.9666500000D-03
     Exponent=  6.8202400000D+02 Coefficients=  1.5230600000D-02
     Exponent=  1.5497300000D+02 Coefficients=  7.6126900000D-02
     Exponent=  4.4455300000D+01 Coefficients=  2.6080100000D-01
     Exponent=  1.3029000000D+01 Coefficients=  6.1646200000D-01
     Exponent=  1.8277300000D+00 Coefficients=  2.2100600000D-01
 S 3 1.0
     Exponent=  2.0964200000D+01 Coefficients=  1.1466000000D-01
     Exponent=  4.8033100000D+00 Coefficients=  9.1999900000D-01
     Exponent=  1.4593300000D+00 Coefficients= -3.0306800000D-03
 S 1 1.0
     Exponent=  4.8345600000D-01 Coefficients=  1.0000000000D+00
 S 1 1.0
     Exponent=  1.4558500000D-01 Coefficients=  1.0000000000D+00
 S 1 1.0
     Exponent=  4.3800000000D-02 Coefficients=  1.0000000000D+00
 P 3 1.0
     Exponent=  2.0964200000D+01 Coefficients=  4.0248700000D-02
     Exponent=  4.8033100000D+00 Coefficients=  2.3759400000D-01
     Exponent=  1.4593300000D+00 Coefficients=  8.1585400000D-01
 P 1 1.0
     Exponent=  4.8345600000D-01 Coefficients=  1.0000000000D+00
 P 1 1.0
     Exponent=  1.4558500000D-01 Coefficients=  1.0000000000D+00
 P 1 1.0
     Exponent=  4.3800000000D-02 Coefficients=  1.0000000000D+00
 D 1 1.0
     Exponent=  6.2600000000D-01 Coefficients=  1.0000000000D+00
 ****
 Centers:   1  7
 S 6 1.0
     Exponent=  6.2934800000D+03 Coefficients=  1.9697900000D-03
     Exponent=  9.4904400000D+02 Coefficients=  1.4961300000D-02
     Exponent=  2.1877600000D+02 Coefficients=  7.3500600000D-02
     Exponent=  6.3691600000D+01 Coefficients=  2.4893700000D-01
     Exponent=  1.8828200000D+01 Coefficients=  6.0246000000D-01
     Exponent=  2.7202300000D+00 Coefficients=  2.5620200000D-01
 S 3 1.0
     Exponent=  3.0633100000D+01 Coefficients=  1.1190600000D-01
     Exponent=  7.0261400000D+00 Coefficients=  9.2166600000D-01
     Exponent=  2.1120500000D+00 Coefficients= -2.5691900000D-03
 S 1 1.0
     Exponent=  6.8400900000D-01 Coefficients=  1.0000000000D+00
 S 1 1.0
     Exponent=  2.0087800000D-01 Coefficients=  1.0000000000D+00
 S 1 1.0
     Exponent=  6.3900000000D-02 Coefficients=  1.0000000000D+00
 S 1 1.0
     Exponent=  1.8257143000D-02 Coefficients=  1.0000000000D+00
 S 1 1.0
     Exponent=  5.2163270000D-03 Coefficients=  1.0000000000D+00
 S 1 1.0
     Exponent=  1.4903790000D-03 Coefficients=  1.0000000000D+00
 P 3 1.0
     Exponent=  3.0633100000D+01 Coefficients=  3.8311900000D-02
     Exponent=  7.0261400000D+00 Coefficients=  2.3740300000D-01
     Exponent=  2.1120500000D+00 Coefficients=  8.1759200000D-01
 P 1 1.0
     Exponent=  6.8400900000D-01 Coefficients=  1.0000000000D+00
 P 1 1.0
     Exponent=  2.0087800000D-01 Coefficients=  1.0000000000D+00
 P 1 1.0
     Exponent=  6.3900000000D-02 Coefficients=  1.0000000000D+00
 P 1 1.0
     Exponent=  1.8257143000D-02 Coefficients=  1.0000000000D+00
 P 1 1.0
     Exponent=  5.2163270000D-03 Coefficients=  1.0000000000D+00
 D 1 1.0
     Exponent=  9.1300000000D-01 Coefficients=  1.0000000000D+00
 ****
 Ernie: Thresh=  0.10000D-02 Tol=  0.10000D-05 Strict=F.
 AO basis set in the form of general basis input (Overlap normalization):
      1 0
 S   6 1.00       0.000000000000
      0.6293480000D+04  0.1969788147D-02
      0.9490440000D+03  0.1496128592D-01
      0.2187760000D+03  0.7350053084D-01
      0.6369160000D+02  0.2489367658D+00
      0.1882820000D+02  0.6024594331D+00
      0.2720230000D+01  0.2562017589D+00
 S   3 1.00       0.000000000000
      0.3063310000D+02  0.1119060795D+00
      0.7026140000D+01  0.9216666549D+00
      0.2112050000D+01 -0.2569191826D-02
 S   1 1.00       0.000000000000
      0.6840090000D+00  0.1000000000D+01
 S   1 1.00       0.000000000000
      0.2008780000D+00  0.1000000000D+01
 S   1 1.00       0.000000000000
      0.6390000000D-01  0.1000000000D+01
 S   1 1.00       0.000000000000
      0.1825714300D-01  0.1000000000D+01
 S   1 1.00       0.000000000000
      0.5216327000D-02  0.1000000000D+01
 S   1 1.00       0.000000000000
      0.1490379000D-02  0.1000000000D+01
 P   3 1.00       0.000000000000
      0.3063310000D+02  0.3831191864D-01
      0.7026140000D+01  0.2374031155D+00
      0.2112050000D+01  0.8175923978D+00
 P   1 1.00       0.000000000000
      0.6840090000D+00  0.1000000000D+01
 P   1 1.00       0.000000000000
      0.2008780000D+00  0.1000000000D+01
 P   1 1.00       0.000000000000
      0.6390000000D-01  0.1000000000D+01
 P   1 1.00       0.000000000000
      0.1825714300D-01  0.1000000000D+01
 P   1 1.00       0.000000000000
      0.5216327000D-02  0.1000000000D+01
 D   1 1.00       0.000000000000
      0.9130000000D+00  0.1000000000D+01
 ****
      2 0
 S   6 1.00       0.000000000000
      0.4563240000D+04  0.1966650249D-02
      0.6820240000D+03  0.1523060193D-01
      0.1549730000D+03  0.7612690966D-01
      0.4445530000D+02  0.2608010331D+00
      0.1302900000D+02  0.6164620782D+00
      0.1827730000D+01  0.2210060280D+00
 S   3 1.00       0.000000000000
      0.2096420000D+02  0.1146600807D+00
      0.4803310000D+01  0.9199996477D+00
      0.1459330000D+01 -0.3030682134D-02
 S   1 1.00       0.000000000000
      0.4834560000D+00  0.1000000000D+01
 S   1 1.00       0.000000000000
      0.1455850000D+00  0.1000000000D+01
 S   1 1.00       0.000000000000
      0.4380000000D-01  0.1000000000D+01
 P   3 1.00       0.000000000000
      0.2096420000D+02  0.4024869267D-01
      0.4803310000D+01  0.2375939567D+00
      0.1459330000D+01  0.8158538515D+00
 P   1 1.00       0.000000000000
      0.4834560000D+00  0.1000000000D+01
 P   1 1.00       0.000000000000
      0.1455850000D+00  0.1000000000D+01
 P   1 1.00       0.000000000000
      0.4380000000D-01  0.1000000000D+01
 D   1 1.00       0.000000000000
      0.6260000000D+00  0.1000000000D+01
 ****
      3 0
 S   6 1.00       0.000000000000
      0.4563240000D+04  0.1966650249D-02
      0.6820240000D+03  0.1523060193D-01
      0.1549730000D+03  0.7612690966D-01
      0.4445530000D+02  0.2608010331D+00
      0.1302900000D+02  0.6164620782D+00
      0.1827730000D+01  0.2210060280D+00
 S   3 1.00       0.000000000000
      0.2096420000D+02  0.1146600807D+00
      0.4803310000D+01  0.9199996477D+00
      0.1459330000D+01 -0.3030682134D-02
 S   1 1.00       0.000000000000
      0.4834560000D+00  0.1000000000D+01
 S   1 1.00       0.000000000000
      0.1455850000D+00  0.1000000000D+01
 S   1 1.00       0.000000000000
      0.4380000000D-01  0.1000000000D+01
 P   3 1.00       0.000000000000
      0.2096420000D+02  0.4024869267D-01
      0.4803310000D+01  0.2375939567D+00
      0.1459330000D+01  0.8158538515D+00
 P   1 1.00       0.000000000000
      0.4834560000D+00  0.1000000000D+01
 P   1 1.00       0.000000000000
      0.1455850000D+00  0.1000000000D+01
 P   1 1.00       0.000000000000
      0.4380000000D-01  0.1000000000D+01
 D   1 1.00       0.000000000000
      0.6260000000D+00  0.1000000000D+01
 ****
      4 0
 S   6 1.00       0.000000000000
      0.4563240000D+04  0.1966650249D-02
      0.6820240000D+03  0.1523060193D-01
      0.1549730000D+03  0.7612690966D-01
      0.4445530000D+02  0.2608010331D+00
      0.1302900000D+02  0.6164620782D+00
      0.1827730000D+01  0.2210060280D+00
 S   3 1.00       0.000000000000
      0.2096420000D+02  0.1146600807D+00
      0.4803310000D+01  0.9199996477D+00
      0.1459330000D+01 -0.3030682134D-02
 S   1 1.00       0.000000000000
      0.4834560000D+00  0.1000000000D+01
 S   1 1.00       0.000000000000
      0.1455850000D+00  0.1000000000D+01
 S   1 1.00       0.000000000000
      0.4380000000D-01  0.1000000000D+01
 P   3 1.00       0.000000000000
      0.2096420000D+02  0.4024869267D-01
      0.4803310000D+01  0.2375939567D+00
      0.1459330000D+01  0.8158538515D+00
 P   1 1.00       0.000000000000
      0.4834560000D+00  0.1000000000D+01
 P   1 1.00       0.000000000000
      0.1455850000D+00  0.1000000000D+01
 P   1 1.00       0.000000000000
      0.4380000000D-01  0.1000000000D+01
 D   1 1.00       0.000000000000
      0.6260000000D+00  0.1000000000D+01
 ****
      5 0
 S   6 1.00       0.000000000000
      0.4563240000D+04  0.1966650249D-02
      0.6820240000D+03  0.1523060193D-01
      0.1549730000D+03  0.7612690966D-01
      0.4445530000D+02  0.2608010331D+00
      0.1302900000D+02  0.6164620782D+00
      0.1827730000D+01  0.2210060280D+00
 S   3 1.00       0.000000000000
      0.2096420000D+02  0.1146600807D+00
      0.4803310000D+01  0.9199996477D+00
      0.1459330000D+01 -0.3030682134D-02
 S   1 1.00       0.000000000000
      0.4834560000D+00  0.1000000000D+01
 S   1 1.00       0.000000000000
      0.1455850000D+00  0.1000000000D+01
 S   1 1.00       0.000000000000
      0.4380000000D-01  0.1000000000D+01
 P   3 1.00       0.000000000000
      0.2096420000D+02  0.4024869267D-01
      0.4803310000D+01  0.2375939567D+00
      0.1459330000D+01  0.8158538515D+00
 P   1 1.00       0.000000000000
      0.4834560000D+00  0.1000000000D+01
 P   1 1.00       0.000000000000
      0.1455850000D+00  0.1000000000D+01
 P   1 1.00       0.000000000000
      0.4380000000D-01  0.1000000000D+01
 D   1 1.00       0.000000000000
      0.6260000000D+00  0.1000000000D+01
 ****
      6 0
 S   6 1.00       0.000000000000
      0.4563240000D+04  0.1966650249D-02
      0.6820240000D+03  0.1523060193D-01
      0.1549730000D+03  0.7612690966D-01
      0.4445530000D+02  0.2608010331D+00
      0.1302900000D+02  0.6164620782D+00
      0.1827730000D+01  0.2210060280D+00
 S   3 1.00       0.000000000000
      0.2096420000D+02  0.1146600807D+00
      0.4803310000D+01  0.9199996477D+00
      0.1459330000D+01 -0.3030682134D-02
 S   1 1.00       0.000000000000
      0.4834560000D+00  0.1000000000D+01
 S   1 1.00       0.000000000000
      0.1455850000D+00  0.1000000000D+01
 S   1 1.00       0.000000000000
      0.4380000000D-01  0.1000000000D+01
 P   3 1.00       0.000000000000
      0.2096420000D+02  0.4024869267D-01
      0.4803310000D+01  0.2375939567D+00
      0.1459330000D+01  0.8158538515D+00
 P   1 1.00       0.000000000000
      0.4834560000D+00  0.1000000000D+01
 P   1 1.00       0.000000000000
      0.1455850000D+00  0.1000000000D+01
 P   1 1.00       0.000000000000
      0.4380000000D-01  0.1000000000D+01
 D   1 1.00       0.000000000000
      0.6260000000D+00  0.1000000000D+01
 ****
      7 0
 S   6 1.00       0.000000000000
      0.6293480000D+04  0.1969788147D-02
      0.9490440000D+03  0.1496128592D-01
      0.2187760000D+03  0.7350053084D-01
      0.6369160000D+02  0.2489367658D+00
      0.1882820000D+02  0.6024594331D+00
      0.2720230000D+01  0.2562017589D+00
 S   3 1.00       0.000000000000
      0.3063310000D+02  0.1119060795D+00
      0.7026140000D+01  0.9216666549D+00
      0.2112050000D+01 -0.2569191826D-02
 S   1 1.00       0.000000000000
      0.6840090000D+00  0.1000000000D+01
 S   1 1.00       0.000000000000
      0.2008780000D+00  0.1000000000D+01
 S   1 1.00       0.000000000000
      0.6390000000D-01  0.1000000000D+01
 S   1 1.00       0.000000000000
      0.1825714300D-01  0.1000000000D+01
 S   1 1.00       0.000000000000
      0.5216327000D-02  0.1000000000D+01
 S   1 1.00       0.000000000000
      0.1490379000D-02  0.1000000000D+01
 P   3 1.00       0.000000000000
      0.3063310000D+02  0.3831191864D-01
      0.7026140000D+01  0.2374031155D+00
      0.2112050000D+01  0.8175923978D+00
 P   1 1.00       0.000000000000
      0.6840090000D+00  0.1000000000D+01
 P   1 1.00       0.000000000000
      0.2008780000D+00  0.1000000000D+01
 P   1 1.00       0.000000000000
      0.6390000000D-01  0.1000000000D+01
 P   1 1.00       0.000000000000
      0.1825714300D-01  0.1000000000D+01
 P   1 1.00       0.000000000000
      0.5216327000D-02  0.1000000000D+01
 D   1 1.00       0.000000000000
      0.9130000000D+00  0.1000000000D+01
 ****
      8 0
 S   3 1.00       0.000000000000
      0.3386500000D+02  0.2549381454D-01
      0.5094790000D+01  0.1903731086D+00
      0.1158790000D+01  0.8521614860D+00
 S   1 1.00       0.000000000000
      0.3258400000D+00  0.1000000000D+01
 S   1 1.00       0.000000000000
      0.1027410000D+00  0.1000000000D+01
 S   1 1.00       0.000000000000
      0.3600000000D-01  0.1000000000D+01
 P   1 1.00       0.000000000000
      0.7500000000D+00  0.1000000000D+01
 ****
      9 0
 S   3 1.00       0.000000000000
      0.3386500000D+02  0.2549381454D-01
      0.5094790000D+01  0.1903731086D+00
      0.1158790000D+01  0.8521614860D+00
 S   1 1.00       0.000000000000
      0.3258400000D+00  0.1000000000D+01
 S   1 1.00       0.000000000000
      0.1027410000D+00  0.1000000000D+01
 S   1 1.00       0.000000000000
      0.3600000000D-01  0.1000000000D+01
 P   1 1.00       0.000000000000
      0.7500000000D+00  0.1000000000D+01
 ****
     10 0
 S   3 1.00       0.000000000000
      0.3386500000D+02  0.2549381454D-01
      0.5094790000D+01  0.1903731086D+00
      0.1158790000D+01  0.8521614860D+00
 S   1 1.00       0.000000000000
      0.3258400000D+00  0.1000000000D+01
 S   1 1.00       0.000000000000
      0.1027410000D+00  0.1000000000D+01
 S   1 1.00       0.000000000000
      0.3600000000D-01  0.1000000000D+01
 P   1 1.00       0.000000000000
      0.7500000000D+00  0.1000000000D+01
 ****

 Integral buffers will be    131072 words long.
 Raffenetti 2 integral format.
 Two-electron integral symmetry is turned off.
   200 basis functions,   297 primitive gaussians,   200 cartesian basis functions
    24 alpha electrons       23 beta electrons
       nuclear repulsion energy       235.7994509405 Hartrees.
 IExCor= 4639 DFT=T Ex+Corr=wB97XD ExCW=0 ScaHFX=  1.000000
 ScaDFX=  1.000000  1.000000  1.000000  1.000000 ScalE2=  1.000000  1.000000
 IRadAn=      0 IRanWt=     -1 IRanGd=            0 ICorTp=0
  HFx wShort=  0.000000 wLong=  0.200000 cFull=  0.222036 cShort=  0.000000 cLong=  0.777964
  DFx wShort=  0.000000 wLong=  0.200000 cFull=  0.000000 cShort=  0.000000 cLong=  1.000000
 NAtoms=   10 NActive=   10 NUniq=   10 SFac= 7.50D-01 NAtFMM=   80 NAOKFM=F Big=F
 R6Disp: Dispersion energy =        -0.0030564439 Hartrees.
 Nuclear repulsion after empirical dispersion term =      235.7963944966 Hartrees.
 Leave Link  301 at Fri May 26 03:03:34 2023, MaxMem= 3276800000 cpu:       0.9
 (Enter /local/g09-source/g09/l302.exe)
 NPDir=0 NMtPBC=     1 NCelOv=     1 NCel=       1 NClECP=     1 NCelD=      1
         NCelK=      1 NCelE2=     1 NClLst=     1 CellRange=     0.0.
 One-electron integrals computed using PRISM.
 NBasis=   200 RedAO= T  NBF=   200
 NBsUse=   200 1.00D-06 NBFU=   200
 Precomputing XC quadrature grid using
 IXCGrd= 2 IRadAn=           0 IRanWt=          -1 IRanGd=           0 AccXCQ= 1.00D-10.
 NRdTot=     695 NPtTot=       89148 NUsed=       94156 NTot=       94188
 NSgBfM=   200   200   200   200   200 NAtAll=    10    10.
 Leave Link  302 at Fri May 26 03:03:34 2023, MaxMem= 3276800000 cpu:       3.0
 (Enter /local/g09-source/g09/l303.exe)
 DipDrv:  MaxL=1.
 Leave Link  303 at Fri May 26 03:03:34 2023, MaxMem= 3276800000 cpu:       0.6
 (Enter /local/g09-source/g09/l401.exe)
 Initial guess read from the checkpoint file:  neu.chk
 B after Tr=     0.000283   -0.000069   -0.000160
         Rot=    1.000000    0.000001   -0.000063   -0.000012 Ang=   0.01 deg.
 Guess basis will be translated and rotated to current coordinates.
 Initial guess <Sx>= 0.0000 <Sy>= 0.0000 <Sz>= 0.5000 <S**2>= 0.7835 S= 0.5166
 Leave Link  401 at Fri May 26 03:03:35 2023, MaxMem= 3276800000 cpu:       2.9
 (Enter /local/g09-source/g09/l502.exe)
 UHF open shell SCF:
 Requested convergence on RMS density matrix=1.00D-08 within 200 cycles.
 Requested convergence on MAX density matrix=1.00D-06.
 Requested convergence on             energy=1.00D-06.
 No special actions if energy rises.
 Using DIIS extrapolation, IDIIS=  1040.
 Two-electron integral symmetry not used.
        94053 words used for storage of precomputed grid.
 IEnd=      259395 IEndB=      259395 NGot=  3276800000 MDV=  3276621206
 LenX=  3276621206 LenY=  3276580765
 Fock matrices will be formed incrementally for  20 cycles.

 Cycle   1  Pass 1  IDiag  1:
 FoFJK:  IHMeth= 1 ICntrl=     0 DoSepK=T KAlg= 1 I1Cent= 0 FoldK=F
 FoFCou: FMM=F IPFlag=           0 FMFlag=      100000 FMFlg1=           0
         NFxFlg=           0 DoJE=T BraDBF=F KetDBF=F FulRan=T
         Omega=  0.000000  0.000000  1.000000  0.000000  0.000000 ICntrl=     500 IOpCl=  0
         NMat0=    1 NMatS0=    1 NMatT0=    0 NMatD0=    1 NMtDS0=    0 NMtDT0=    0
         I1Cent=           0 NGrid=           0.
 Symmetry not used in FoFCou.
 E= -301.645326152362    
 DIIS: error= 3.55D-04 at cycle   1 NSaved=   1.
 NSaved= 1 IEnMin= 1 EnMin= -301.645326152362     IErMin= 1 ErrMin= 3.55D-04
 ErrMax= 3.55D-04 EMaxC= 1.00D-01 BMatC= 2.12D-04 BMatP= 2.12D-04
 IDIUse=3 WtCom= 9.96D-01 WtEn= 3.55D-03
 Coeff-Com:  0.100D+01
 Coeff-En:   0.100D+01
 Coeff:      0.100D+01
 Gap=     0.351 Goal=   None    Shift=    0.000
 Gap=     0.264 Goal=   None    Shift=    0.000
 RMSDP=9.77D-04 MaxDP=8.29D-02              OVMax= 1.96D-03

 Cycle   2  Pass 1  IDiag  1:
 RMSU=  5.27D-04    CP:  1.01D+00
 FoFJK:  IHMeth= 1 ICntrl=     0 DoSepK=T KAlg= 1 I1Cent= 0 FoldK=F
 E= -301.645392355651     Delta-E=       -0.000066203289 Rises=F Damp=F
 DIIS: error= 2.30D-04 at cycle   2 NSaved=   2.
 NSaved= 2 IEnMin= 2 EnMin= -301.645392355651     IErMin= 2 ErrMin= 2.30D-04
 ErrMax= 2.30D-04 EMaxC= 1.00D-01 BMatC= 1.89D-05 BMatP= 2.12D-04
 IDIUse=3 WtCom= 9.98D-01 WtEn= 2.30D-03
 Coeff-Com:  0.412D-01 0.959D+00
 Coeff-En:   0.000D+00 0.100D+01
 Coeff:      0.411D-01 0.959D+00
 Gap=     0.352 Goal=   None    Shift=    0.000
 Gap=     0.262 Goal=   None    Shift=    0.000
 RMSDP=1.69D-04 MaxDP=1.48D-02 DE=-6.62D-05 OVMax= 1.46D-03

 Cycle   3  Pass 1  IDiag  1:
 RMSU=  6.49D-05    CP:  1.01D+00  1.12D+00
 FoFJK:  IHMeth= 1 ICntrl=     0 DoSepK=T KAlg= 1 I1Cent= 0 FoldK=F
 E= -301.645394264229     Delta-E=       -0.000001908578 Rises=F Damp=F
 DIIS: error= 2.40D-04 at cycle   3 NSaved=   3.
 NSaved= 3 IEnMin= 3 EnMin= -301.645394264229     IErMin= 2 ErrMin= 2.30D-04
 ErrMax= 2.40D-04 EMaxC= 1.00D-01 BMatC= 2.09D-05 BMatP= 1.89D-05
 IDIUse=3 WtCom= 3.92D-01 WtEn= 6.08D-01
 Coeff-Com: -0.613D-01 0.539D+00 0.522D+00
 Coeff-En:   0.000D+00 0.379D+00 0.621D+00
 Coeff:     -0.241D-01 0.442D+00 0.582D+00
 Gap=     0.352 Goal=   None    Shift=    0.000
 Gap=     0.262 Goal=   None    Shift=    0.000
 RMSDP=5.73D-05 MaxDP=3.57D-03 DE=-1.91D-06 OVMax= 7.76D-04

 Cycle   4  Pass 1  IDiag  1:
 RMSU=  3.32D-05    CP:  1.01D+00  1.14D+00  6.61D-01
 FoFJK:  IHMeth= 1 ICntrl=     0 DoSepK=T KAlg= 1 I1Cent= 0 FoldK=F
 E= -301.645398720429     Delta-E=       -0.000004456199 Rises=F Damp=F
 DIIS: error= 8.23D-05 at cycle   4 NSaved=   4.
 NSaved= 4 IEnMin= 4 EnMin= -301.645398720429     IErMin= 4 ErrMin= 8.23D-05
 ErrMax= 8.23D-05 EMaxC= 1.00D-01 BMatC= 2.87D-06 BMatP= 1.89D-05
 IDIUse=1 WtCom= 1.00D+00 WtEn= 0.00D+00
 Coeff-Com: -0.235D-01 0.793D-01 0.296D+00 0.648D+00
 Coeff:     -0.235D-01 0.793D-01 0.296D+00 0.648D+00
 Gap=     0.352 Goal=   None    Shift=    0.000
 Gap=     0.262 Goal=   None    Shift=    0.000
 RMSDP=2.36D-05 MaxDP=1.98D-03 DE=-4.46D-06 OVMax= 3.16D-04

 Cycle   5  Pass 1  IDiag  1:
 RMSU=  6.50D-06    CP:  1.01D+00  1.15D+00  7.94D-01  1.07D+00
 FoFJK:  IHMeth= 1 ICntrl=     0 DoSepK=T KAlg= 1 I1Cent= 0 FoldK=F
 E= -301.645399422653     Delta-E=       -0.000000702225 Rises=F Damp=F
 DIIS: error= 3.50D-05 at cycle   5 NSaved=   5.
 NSaved= 5 IEnMin= 5 EnMin= -301.645399422653     IErMin= 5 ErrMin= 3.50D-05
 ErrMax= 3.50D-05 EMaxC= 1.00D-01 BMatC= 3.79D-07 BMatP= 2.87D-06
 IDIUse=1 WtCom= 1.00D+00 WtEn= 0.00D+00
 Coeff-Com:  0.296D-03-0.845D-01 0.533D-01 0.390D+00 0.641D+00
 Coeff:      0.296D-03-0.845D-01 0.533D-01 0.390D+00 0.641D+00
 Gap=     0.352 Goal=   None    Shift=    0.000
 Gap=     0.262 Goal=   None    Shift=    0.000
 RMSDP=7.92D-06 MaxDP=5.63D-04 DE=-7.02D-07 OVMax= 2.35D-04

 Cycle   6  Pass 1  IDiag  1:
 RMSU=  2.69D-06    CP:  1.01D+00  1.15D+00  7.96D-01  1.20D+00  1.14D+00
 FoFJK:  IHMeth= 1 ICntrl=     0 DoSepK=T KAlg= 1 I1Cent= 0 FoldK=F
 E= -301.645399577036     Delta-E=       -0.000000154383 Rises=F Damp=F
 DIIS: error= 1.70D-05 at cycle   6 NSaved=   6.
 NSaved= 6 IEnMin= 6 EnMin= -301.645399577036     IErMin= 6 ErrMin= 1.70D-05
 ErrMax= 1.70D-05 EMaxC= 1.00D-01 BMatC= 4.39D-08 BMatP= 3.79D-07
 IDIUse=1 WtCom= 1.00D+00 WtEn= 0.00D+00
 Coeff-Com:  0.383D-02-0.388D-01-0.300D-01 0.183D-01 0.196D+00 0.850D+00
 Coeff:      0.383D-02-0.388D-01-0.300D-01 0.183D-01 0.196D+00 0.850D+00
 Gap=     0.352 Goal=   None    Shift=    0.000
 Gap=     0.262 Goal=   None    Shift=    0.000
 RMSDP=4.59D-06 MaxDP=2.69D-04 DE=-1.54D-07 OVMax= 2.19D-04

 Cycle   7  Pass 1  IDiag  1:
 RMSU=  1.89D-06    CP:  1.01D+00  1.16D+00  7.87D-01  1.27D+00  1.22D+00
                    CP:  1.31D+00
 FoFJK:  IHMeth= 1 ICntrl=     0 DoSepK=T KAlg= 1 I1Cent= 0 FoldK=F
 E= -301.645399630741     Delta-E=       -0.000000053705 Rises=F Damp=F
 DIIS: error= 1.35D-05 at cycle   7 NSaved=   7.
 NSaved= 7 IEnMin= 7 EnMin= -301.645399630741     IErMin= 7 ErrMin= 1.35D-05
 ErrMax= 1.35D-05 EMaxC= 1.00D-01 BMatC= 2.12D-08 BMatP= 4.39D-08
 IDIUse=1 WtCom= 1.00D+00 WtEn= 0.00D+00
 Coeff-Com:  0.162D-02 0.117D-01-0.329D-01-0.128D+00-0.120D+00 0.361D+00
 Coeff-Com:  0.906D+00
 Coeff:      0.162D-02 0.117D-01-0.329D-01-0.128D+00-0.120D+00 0.361D+00
 Coeff:      0.906D+00
 Gap=     0.352 Goal=   None    Shift=    0.000
 Gap=     0.262 Goal=   None    Shift=    0.000
 RMSDP=3.85D-06 MaxDP=2.28D-04 DE=-5.37D-08 OVMax= 2.20D-04

 Cycle   8  Pass 1  IDiag  1:
 RMSU=  1.16D-06    CP:  1.01D+00  1.16D+00  7.71D-01  1.32D+00  1.36D+00
                    CP:  1.73D+00  1.54D+00
 FoFJK:  IHMeth= 1 ICntrl=     0 DoSepK=T KAlg= 1 I1Cent= 0 FoldK=F
 E= -301.645399667577     Delta-E=       -0.000000036836 Rises=F Damp=F
 DIIS: error= 1.01D-05 at cycle   8 NSaved=   8.
 NSaved= 8 IEnMin= 8 EnMin= -301.645399667577     IErMin= 8 ErrMin= 1.01D-05
 ErrMax= 1.01D-05 EMaxC= 1.00D-01 BMatC= 8.11D-09 BMatP= 2.12D-08
 IDIUse=1 WtCom= 1.00D+00 WtEn= 0.00D+00
 Coeff-Com: -0.153D-02 0.229D-01 0.522D-02-0.424D-01-0.107D+00-0.357D+00
 Coeff-Com:  0.188D+00 0.129D+01
 Coeff:     -0.153D-02 0.229D-01 0.522D-02-0.424D-01-0.107D+00-0.357D+00
 Coeff:      0.188D+00 0.129D+01
 Gap=     0.352 Goal=   None    Shift=    0.000
 Gap=     0.262 Goal=   None    Shift=    0.000
 RMSDP=3.84D-06 MaxDP=3.30D-04 DE=-3.68D-08 OVMax= 2.72D-04

 Cycle   9  Pass 1  IDiag  1:
 RMSU=  7.43D-07    CP:  1.01D+00  1.16D+00  7.56D-01  1.35D+00  1.39D+00
                    CP:  2.03D+00  2.44D+00  1.79D+00
 FoFJK:  IHMeth= 1 ICntrl=     0 DoSepK=T KAlg= 1 I1Cent= 0 FoldK=F
 E= -301.645399692870     Delta-E=       -0.000000025293 Rises=F Damp=F
 DIIS: error= 5.84D-06 at cycle   9 NSaved=   9.
 NSaved= 9 IEnMin= 9 EnMin= -301.645399692870     IErMin= 9 ErrMin= 5.84D-06
 ErrMax= 5.84D-06 EMaxC= 1.00D-01 BMatC= 3.16D-09 BMatP= 8.11D-09
 IDIUse=1 WtCom= 1.00D+00 WtEn= 0.00D+00
 Coeff-Com: -0.107D-02 0.294D-02 0.135D-01 0.345D-01 0.169D-01-0.261D+00
 Coeff-Com: -0.285D+00 0.502D+00 0.977D+00
 Coeff:     -0.107D-02 0.294D-02 0.135D-01 0.345D-01 0.169D-01-0.261D+00
 Coeff:     -0.285D+00 0.502D+00 0.977D+00
 Gap=     0.352 Goal=   None    Shift=    0.000
 Gap=     0.262 Goal=   None    Shift=    0.000
 RMSDP=2.00D-06 MaxDP=1.57D-04 DE=-2.53D-08 OVMax= 1.59D-04

 Cycle  10  Pass 1  IDiag  1:
 RMSU=  3.72D-07    CP:  1.01D+00  1.16D+00  7.49D-01  1.36D+00  1.39D+00
                    CP:  2.16D+00  2.88D+00  2.50D+00  1.50D+00
 FoFJK:  IHMeth= 1 ICntrl=     0 DoSepK=T KAlg= 1 I1Cent= 0 FoldK=F
 E= -301.645399700837     Delta-E=       -0.000000007967 Rises=F Damp=F
 DIIS: error= 3.52D-06 at cycle  10 NSaved=  10.
 NSaved=10 IEnMin=10 EnMin= -301.645399700837     IErMin=10 ErrMin= 3.52D-06
 ErrMax= 3.52D-06 EMaxC= 1.00D-01 BMatC= 8.57D-10 BMatP= 3.16D-09
 IDIUse=1 WtCom= 1.00D+00 WtEn= 0.00D+00
 Coeff-Com:  0.437D-03-0.815D-02-0.138D-03 0.189D-01 0.414D-01 0.104D+00
 Coeff-Com: -0.117D+00-0.389D+00 0.424D-01 0.131D+01
 Coeff:      0.437D-03-0.815D-02-0.138D-03 0.189D-01 0.414D-01 0.104D+00
 Coeff:     -0.117D+00-0.389D+00 0.424D-01 0.131D+01
 Gap=     0.352 Goal=   None    Shift=    0.000
 Gap=     0.262 Goal=   None    Shift=    0.000
 RMSDP=1.17D-06 MaxDP=1.20D-04 DE=-7.97D-09 OVMax= 1.17D-04

 Cycle  11  Pass 1  IDiag  1:
 RMSU=  2.78D-07    CP:  1.01D+00  1.16D+00  7.50D-01  1.37D+00  1.38D+00
                    CP:  2.18D+00  3.00D+00  2.91D+00  1.98D+00  1.61D+00
 FoFJK:  IHMeth= 1 ICntrl=     0 DoSepK=T KAlg= 1 I1Cent= 0 FoldK=F
 E= -301.645399703973     Delta-E=       -0.000000003136 Rises=F Damp=F
 DIIS: error= 1.81D-06 at cycle  11 NSaved=  11.
 NSaved=11 IEnMin=11 EnMin= -301.645399703973     IErMin=11 ErrMin= 1.81D-06
 ErrMax= 1.81D-06 EMaxC= 1.00D-01 BMatC= 2.96D-10 BMatP= 8.57D-10
 IDIUse=1 WtCom= 1.00D+00 WtEn= 0.00D+00
 Coeff-Com:  0.322D-03-0.101D-02-0.403D-02-0.991D-02-0.479D-02 0.855D-01
 Coeff-Com:  0.748D-01-0.146D+00-0.310D+00 0.818D-01 0.123D+01
 Coeff:      0.322D-03-0.101D-02-0.403D-02-0.991D-02-0.479D-02 0.855D-01
 Coeff:      0.748D-01-0.146D+00-0.310D+00 0.818D-01 0.123D+01
 Gap=     0.352 Goal=   None    Shift=    0.000
 Gap=     0.262 Goal=   None    Shift=    0.000
 RMSDP=5.35D-07 MaxDP=4.65D-05 DE=-3.14D-09 OVMax= 5.54D-05

 Cycle  12  Pass 1  IDiag  1:
 RMSU=  1.55D-07    CP:  1.01D+00  1.16D+00  7.52D-01  1.37D+00  1.37D+00
                    CP:  2.17D+00  3.00D+00  2.99D+00  2.17D+00  1.93D+00
                    CP:  1.73D+00
 FoFJK:  IHMeth= 1 ICntrl=     0 DoSepK=T KAlg= 1 I1Cent= 0 FoldK=F
 E= -301.645399704904     Delta-E=       -0.000000000931 Rises=F Damp=F
 DIIS: error= 1.09D-06 at cycle  12 NSaved=  12.
 NSaved=12 IEnMin=12 EnMin= -301.645399704904     IErMin=12 ErrMin= 1.09D-06
 ErrMax= 1.09D-06 EMaxC= 1.00D-01 BMatC= 1.01D-10 BMatP= 2.96D-10
 IDIUse=1 WtCom= 1.00D+00 WtEn= 0.00D+00
 Coeff-Com: -0.209D-03 0.350D-02 0.183D-03-0.700D-02-0.168D-01-0.461D-01
 Coeff-Com:  0.346D-01 0.184D+00-0.494D-02-0.507D+00-0.123D+00 0.148D+01
 Coeff:     -0.209D-03 0.350D-02 0.183D-03-0.700D-02-0.168D-01-0.461D-01
 Coeff:      0.346D-01 0.184D+00-0.494D-02-0.507D+00-0.123D+00 0.148D+01
 Gap=     0.352 Goal=   None    Shift=    0.000
 Gap=     0.262 Goal=   None    Shift=    0.000
 RMSDP=4.28D-07 MaxDP=2.98D-05 DE=-9.31D-10 OVMax= 3.60D-05

 Cycle  13  Pass 1  IDiag  1:
 RMSU=  1.56D-07    CP:  1.01D+00  1.16D+00  7.52D-01  1.37D+00  1.38D+00
                    CP:  2.17D+00  3.00D+00  2.99D+00  2.11D+00  1.97D+00
                    CP:  2.38D+00  2.12D+00
 FoFJK:  IHMeth= 1 ICntrl=     0 DoSepK=T KAlg= 1 I1Cent= 0 FoldK=F
 E= -301.645399705294     Delta-E=       -0.000000000389 Rises=F Damp=F
 DIIS: error= 5.05D-07 at cycle  13 NSaved=  13.
 NSaved=13 IEnMin=13 EnMin= -301.645399705294     IErMin=13 ErrMin= 5.05D-07
 ErrMax= 5.05D-07 EMaxC= 1.00D-01 BMatC= 3.31D-11 BMatP= 1.01D-10
 IDIUse=1 WtCom= 1.00D+00 WtEn= 0.00D+00
 Coeff-Com: -0.115D-03 0.766D-03 0.107D-02 0.143D-02-0.911D-03-0.294D-01
 Coeff-Com: -0.172D-01 0.634D-01 0.807D-01-0.895D-01-0.363D+00 0.204D+00
 Coeff-Com:  0.115D+01
 Coeff:     -0.115D-03 0.766D-03 0.107D-02 0.143D-02-0.911D-03-0.294D-01
 Coeff:     -0.172D-01 0.634D-01 0.807D-01-0.895D-01-0.363D+00 0.204D+00
 Coeff:      0.115D+01
 Gap=     0.352 Goal=   None    Shift=    0.000
 Gap=     0.262 Goal=   None    Shift=    0.000
 RMSDP=2.31D-07 MaxDP=1.74D-05 DE=-3.89D-10 OVMax= 1.92D-05

 Cycle  14  Pass 1  IDiag  1:
 RMSU=  6.01D-08    CP:  1.01D+00  1.16D+00  7.52D-01  1.37D+00  1.38D+00
                    CP:  2.17D+00  3.00D+00  2.99D+00  2.07D+00  1.94D+00
                    CP:  2.73D+00  2.66D+00  1.51D+00
 FoFJK:  IHMeth= 1 ICntrl=     0 DoSepK=T KAlg= 1 I1Cent= 0 FoldK=F
 E= -301.645399705402     Delta-E=       -0.000000000108 Rises=F Damp=F
 DIIS: error= 2.90D-07 at cycle  14 NSaved=  14.
 NSaved=14 IEnMin=14 EnMin= -301.645399705402     IErMin=14 ErrMin= 2.90D-07
 ErrMax= 2.90D-07 EMaxC= 1.00D-01 BMatC= 1.03D-11 BMatP= 3.31D-11
 IDIUse=1 WtCom= 1.00D+00 WtEn= 0.00D+00
 Coeff-Com:  0.401D-04-0.110D-02 0.317D-03 0.320D-02 0.636D-02 0.910D-02
 Coeff-Com: -0.189D-01-0.504D-01 0.312D-01 0.173D+00-0.714D-01-0.517D+00
 Coeff-Com:  0.307D+00 0.113D+01
 Coeff:      0.401D-04-0.110D-02 0.317D-03 0.320D-02 0.636D-02 0.910D-02
 Coeff:     -0.189D-01-0.504D-01 0.312D-01 0.173D+00-0.714D-01-0.517D+00
 Coeff:      0.307D+00 0.113D+01
 Gap=     0.352 Goal=   None    Shift=    0.000
 Gap=     0.262 Goal=   None    Shift=    0.000
 RMSDP=1.58D-07 MaxDP=1.37D-05 DE=-1.08D-10 OVMax= 9.22D-06

 Cycle  15  Pass 1  IDiag  1:
 RMSU=  2.50D-08    CP:  1.01D+00  1.16D+00  7.52D-01  1.37D+00  1.38D+00
                    CP:  2.16D+00  3.00D+00  2.99D+00  2.02D+00  1.91D+00
                    CP:  2.85D+00  3.00D+00  1.95D+00  1.46D+00
 FoFJK:  IHMeth= 1 ICntrl=     0 DoSepK=T KAlg= 1 I1Cent= 0 FoldK=F
 E= -301.645399705428     Delta-E=       -0.000000000027 Rises=F Damp=F
 DIIS: error= 1.09D-07 at cycle  15 NSaved=  15.
 NSaved=15 IEnMin=15 EnMin= -301.645399705428     IErMin=15 ErrMin= 1.09D-07
 ErrMax= 1.09D-07 EMaxC= 1.00D-01 BMatC= 2.27D-12 BMatP= 1.03D-11
 IDIUse=1 WtCom= 1.00D+00 WtEn= 0.00D+00
 Coeff-Com:  0.243D-04-0.107D-03-0.284D-03-0.527D-03-0.313D-03 0.645D-02
 Coeff-Com:  0.409D-02-0.113D-01-0.205D-01 0.795D-02 0.888D-01 0.610D-02
 Coeff-Com: -0.361D+00-0.196D-01 0.130D+01
 Coeff:      0.243D-04-0.107D-03-0.284D-03-0.527D-03-0.313D-03 0.645D-02
 Coeff:      0.409D-02-0.113D-01-0.205D-01 0.795D-02 0.888D-01 0.610D-02
 Coeff:     -0.361D+00-0.196D-01 0.130D+01
 Gap=     0.352 Goal=   None    Shift=    0.000
 Gap=     0.262 Goal=   None    Shift=    0.000
 RMSDP=6.11D-08 MaxDP=5.14D-06 DE=-2.66D-11 OVMax= 4.96D-06

 Cycle  16  Pass 1  IDiag  1:
 RMSU=  1.51D-08    CP:  1.01D+00  1.16D+00  7.52D-01  1.37D+00  1.38D+00
                    CP:  2.16D+00  3.00D+00  2.99D+00  2.01D+00  1.93D+00
                    CP:  2.89D+00  3.00D+00  2.12D+00  1.79D+00  1.67D+00
 FoFJK:  IHMeth= 1 ICntrl=     0 DoSepK=T KAlg= 1 I1Cent= 0 FoldK=F
 E= -301.645399705435     Delta-E=       -0.000000000007 Rises=F Damp=F
 DIIS: error= 4.02D-08 at cycle  16 NSaved=  16.
 NSaved=16 IEnMin=16 EnMin= -301.645399705435     IErMin=16 ErrMin= 4.02D-08
 ErrMax= 4.02D-08 EMaxC= 1.00D-01 BMatC= 3.73D-13 BMatP= 2.27D-12
 IDIUse=1 WtCom= 1.00D+00 WtEn= 0.00D+00
 Coeff-Com: -0.111D-04 0.237D-03-0.183D-04-0.577D-03-0.117D-02-0.253D-02
 Coeff-Com:  0.281D-02 0.127D-01-0.432D-02-0.351D-01-0.266D-02 0.111D+00
 Coeff-Com: -0.136D-01-0.206D+00-0.276D+00 0.142D+01
 Coeff:     -0.111D-04 0.237D-03-0.183D-04-0.577D-03-0.117D-02-0.253D-02
 Coeff:      0.281D-02 0.127D-01-0.432D-02-0.351D-01-0.266D-02 0.111D+00
 Coeff:     -0.136D-01-0.206D+00-0.276D+00 0.142D+01
 Gap=     0.352 Goal=   None    Shift=    0.000
 Gap=     0.262 Goal=   None    Shift=    0.000
 RMSDP=2.43D-08 MaxDP=1.64D-06 DE=-7.05D-12 OVMax= 1.62D-06

 Cycle  17  Pass 1  IDiag  1:
 RMSU=  6.67D-09    CP:  1.01D+00  1.16D+00  7.52D-01  1.37D+00  1.38D+00
                    CP:  2.16D+00  3.00D+00  3.00D+00  2.02D+00  1.94D+00
                    CP:  2.90D+00  3.00D+00  2.14D+00  1.88D+00  1.93D+00
                    CP:  1.43D+00
 FoFJK:  IHMeth= 1 ICntrl=     0 DoSepK=T KAlg= 1 I1Cent= 0 FoldK=F
 E= -301.645399705438     Delta-E=       -0.000000000003 Rises=F Damp=F
 DIIS: error= 1.20D-08 at cycle  17 NSaved=  17.
 NSaved=17 IEnMin=17 EnMin= -301.645399705438     IErMin=17 ErrMin= 1.20D-08
 ErrMax= 1.20D-08 EMaxC= 1.00D-01 BMatC= 7.91D-14 BMatP= 3.73D-13
 IDIUse=1 WtCom= 1.00D+00 WtEn= 0.00D+00
 Coeff-Com: -0.708D-05 0.832D-04 0.378D-04-0.983D-04-0.293D-03-0.169D-02
 Coeff-Com:  0.167D-03 0.522D-02 0.174D-02-0.103D-01-0.152D-01 0.283D-01
 Coeff-Com:  0.513D-01-0.481D-01-0.285D+00 0.373D+00 0.901D+00
 Coeff:     -0.708D-05 0.832D-04 0.378D-04-0.983D-04-0.293D-03-0.169D-02
 Coeff:      0.167D-03 0.522D-02 0.174D-02-0.103D-01-0.152D-01 0.283D-01
 Coeff:      0.513D-01-0.481D-01-0.285D+00 0.373D+00 0.901D+00
 Gap=     0.352 Goal=   None    Shift=    0.000
 Gap=     0.262 Goal=   None    Shift=    0.000
 RMSDP=6.80D-09 MaxDP=6.15D-07 DE=-2.50D-12 OVMax= 5.18D-07

 SCF Done:  E(UwB97XD) =  -301.645399705     A.U. after   17 cycles
             Convg  =    0.6800D-08             -V/T =  2.0065
 <Sx>= 0.0000 <Sy>= 0.0000 <Sz>= 0.5000 <S**2>= 0.7838 S= 0.5168
 <L.S>= 0.000000000000E+00
 KE= 2.996867871839D+02 PE=-1.172589917081D+03 EE= 3.354613356955D+02
 Annihilation of the first spin contaminant:
 S**2 before annihilation     0.7838,   after     0.7508
 Leave Link  502 at Fri May 26 03:05:05 2023, MaxMem= 3276800000 cpu:     881.8
 (Enter /local/g09-source/g09/l601.exe)
 Copying SCF densities to generalized density rwf, IOpCl= 1 IROHF=0.

 **********************************************************************

            Population analysis using the SCF density.

 **********************************************************************

 Alpha  occ. eigenvalues --  -14.47566 -14.46796 -10.41196 -10.38811 -10.35859
 Alpha  occ. eigenvalues --  -10.35241 -10.33964  -1.09262  -1.03594  -0.91870
 Alpha  occ. eigenvalues --   -0.88226  -0.74186  -0.67630  -0.64574  -0.56190
 Alpha  occ. eigenvalues --   -0.55132  -0.52388  -0.48948  -0.48222  -0.47016
 Alpha  occ. eigenvalues --   -0.44520  -0.38789  -0.37359  -0.35026
 Alpha virt. eigenvalues --    0.00139   0.00434   0.00951   0.01263   0.01294
 Alpha virt. eigenvalues --    0.01714   0.01762   0.01926   0.02005   0.02070
 Alpha virt. eigenvalues --    0.02718   0.04262   0.05439   0.05658   0.06089
 Alpha virt. eigenvalues --    0.06268   0.06656   0.06844   0.07229   0.07448
 Alpha virt. eigenvalues --    0.07687   0.08189   0.09051   0.10204   0.11924
 Alpha virt. eigenvalues --    0.12268   0.13900   0.14308   0.14448   0.15635
 Alpha virt. eigenvalues --    0.16526   0.16708   0.17029   0.18257   0.18660
 Alpha virt. eigenvalues --    0.19143   0.19547   0.20216   0.20255   0.20759
 Alpha virt. eigenvalues --    0.21086   0.23445   0.23934   0.26071   0.26712
 Alpha virt. eigenvalues --    0.27171   0.28943   0.29487   0.30054   0.31326
 Alpha virt. eigenvalues --    0.31823   0.33421   0.34610   0.35147   0.35998
 Alpha virt. eigenvalues --    0.37397   0.37912   0.40202   0.43261   0.45049
 Alpha virt. eigenvalues --    0.48206   0.51800   0.57232   0.58398   0.60213
 Alpha virt. eigenvalues --    0.62475   0.63130   0.64200   0.66006   0.67441
 Alpha virt. eigenvalues --    0.68857   0.69750   0.70842   0.74170   0.76268
 Alpha virt. eigenvalues --    0.79506   0.81968   0.82529   0.83791   0.85485
 Alpha virt. eigenvalues --    0.87039   0.89511   0.92204   0.94131   0.94598
 Alpha virt. eigenvalues --    0.96720   0.99677   1.02454   1.02829   1.07808
 Alpha virt. eigenvalues --    1.09521   1.13157   1.13479   1.15471   1.18831
 Alpha virt. eigenvalues --    1.23005   1.30165   1.31815   1.32790   1.35892
 Alpha virt. eigenvalues --    1.40017   1.49453   1.55211   1.56541   1.57935
 Alpha virt. eigenvalues --    1.61519   1.65115   1.67983   1.69878   1.72963
 Alpha virt. eigenvalues --    1.77479   1.80836   1.84132   1.87997   1.92639
 Alpha virt. eigenvalues --    1.95249   1.96279   2.01500   2.07745   2.11300
 Alpha virt. eigenvalues --    2.13391   2.14455   2.19514   2.21675   2.32963
 Alpha virt. eigenvalues --    2.34569   2.39669   2.47994   2.50404   2.60426
 Alpha virt. eigenvalues --    2.65964   2.70123   2.72289   2.77506   2.77924
 Alpha virt. eigenvalues --    2.81650   2.83754   2.86372   2.89522   2.92481
 Alpha virt. eigenvalues --    2.95755   2.98491   2.99913   3.01793   3.05838
 Alpha virt. eigenvalues --    3.06990   3.10051   3.18013   3.23087   3.26330
 Alpha virt. eigenvalues --    3.40340   3.41496   3.44926   3.51480   3.57104
 Alpha virt. eigenvalues --    3.60801   3.67445   3.99419   4.04731   4.06313
 Alpha virt. eigenvalues --    4.10914   4.22520   4.34962   4.41521   4.45715
 Alpha virt. eigenvalues --    4.63605   5.06958   5.16493   5.73511  26.64034
 Alpha virt. eigenvalues --   26.70469  26.71722  26.80499  26.93778  39.67597
 Alpha virt. eigenvalues --   39.84034
  Beta  occ. eigenvalues --  -14.47107 -14.47049 -10.40493 -10.38403 -10.36069
  Beta  occ. eigenvalues --  -10.34967 -10.34077  -1.08540  -1.02736  -0.91696
  Beta  occ. eigenvalues --   -0.86159  -0.73318  -0.66953  -0.64218  -0.55933
  Beta  occ. eigenvalues --   -0.52433  -0.51562  -0.48382  -0.47540  -0.44313
  Beta  occ. eigenvalues --   -0.44148  -0.38787  -0.37384
  Beta virt. eigenvalues --   -0.11189   0.00162   0.00435   0.01007   0.01289
  Beta virt. eigenvalues --    0.01346   0.01729   0.01888   0.01935   0.02084
  Beta virt. eigenvalues --    0.02738   0.03990   0.04421   0.05450   0.05763
  Beta virt. eigenvalues --    0.06178   0.06404   0.06735   0.06927   0.07283
  Beta virt. eigenvalues --    0.07785   0.08216   0.09113   0.09368   0.10474
  Beta virt. eigenvalues --    0.12134   0.12426   0.14297   0.14397   0.15236
  Beta virt. eigenvalues --    0.15818   0.16616   0.16792   0.17798   0.18196
  Beta virt. eigenvalues --    0.18761   0.19501   0.19622   0.20353   0.20602
  Beta virt. eigenvalues --    0.21053   0.21465   0.23568   0.24062   0.26175
  Beta virt. eigenvalues --    0.27214   0.27328   0.28962   0.29796   0.30257
  Beta virt. eigenvalues --    0.31467   0.32122   0.33520   0.34808   0.35305
  Beta virt. eigenvalues --    0.36248   0.37538   0.38164   0.40445   0.43407
  Beta virt. eigenvalues --    0.45275   0.48609   0.52294   0.57563   0.58540
  Beta virt. eigenvalues --    0.60402   0.63199   0.63526   0.65477   0.66365
  Beta virt. eigenvalues --    0.68044   0.68944   0.70187   0.71233   0.74408
  Beta virt. eigenvalues --    0.76578   0.79713   0.82250   0.82657   0.84029
  Beta virt. eigenvalues --    0.85777   0.87395   0.89849   0.92579   0.94241
  Beta virt. eigenvalues --    0.94985   0.96755   1.00388   1.02602   1.03121
  Beta virt. eigenvalues --    1.08379   1.09797   1.13669   1.14218   1.16701
  Beta virt. eigenvalues --    1.19470   1.24381   1.30082   1.32202   1.33126
  Beta virt. eigenvalues --    1.35752   1.40131   1.50005   1.55379   1.56872
  Beta virt. eigenvalues --    1.58420   1.62471   1.65619   1.68118   1.70312
  Beta virt. eigenvalues --    1.73604   1.78327   1.81780   1.84898   1.89514
  Beta virt. eigenvalues --    1.93442   1.96396   1.97571   2.01858   2.08687
  Beta virt. eigenvalues --    2.12374   2.14888   2.16076   2.20283   2.22551
  Beta virt. eigenvalues --    2.33408   2.35206   2.40383   2.48349   2.51131
  Beta virt. eigenvalues --    2.60512   2.66005   2.70806   2.73294   2.77710
  Beta virt. eigenvalues --    2.79113   2.81942   2.83819   2.86493   2.90000
  Beta virt. eigenvalues --    2.93736   2.96075   2.99334   2.99717   3.03691
  Beta virt. eigenvalues --    3.06506   3.08828   3.10748   3.18384   3.24043
  Beta virt. eigenvalues --    3.26896   3.40674   3.42534   3.45373   3.52161
  Beta virt. eigenvalues --    3.57845   3.61281   3.67565   3.98548   4.05814
  Beta virt. eigenvalues --    4.08320   4.11721   4.23077   4.35513   4.41423
  Beta virt. eigenvalues --    4.46571   4.64806   5.07462   5.16452   5.74553
  Beta virt. eigenvalues --   26.64218  26.71406  26.72829  26.80230  26.94008
  Beta virt. eigenvalues --   39.67270  39.84672
     Alpha Molecular Orbital Coefficients:
                           1         2         3         4         5
                           O         O         O         O         O
     Eigenvalues --  -.14475659704595E+02 -.14467958960398E+02 -.10411961416876E+02 -.10388113156871E+02 -.10358585032373E+02
   1 1   N  1S       -.30547161653907E-04 0.55840653262187E+00 -.40133450045615E-04 -.71871322254000E-04 -.66741069019050E-06
   2        2S       -.27096149830042E-04 0.46257187767864E+00 -.67505957879321E-04 -.11997552370557E-03 0.13531137351102E-04
   3        3S       -.17619492492911E-04 0.18464737751974E-01 -.18534380764271E-03 0.75524099946578E-04 0.38713634982038E-04
   4        4S       0.27365357026856E-03 0.68736593001486E-02 0.11943210847398E-02 0.51524179608557E-03 -.36269912805665E-03
   5        5S       0.18834725472629E-03 -.22259721815038E-02 -.90844991327880E-02 -.11316846581489E-01 -.12726211748645E-02
   6        6S       0.89229865167457E-04 -.11645064526370E-02 -.15690959899013E-02 -.93995883817805E-03 0.68753864430280E-03
   7        7S       0.14934843529355E-03 0.92741320845638E-03 0.20323034741831E-02 0.97907660118348E-03 -.50057061168965E-03
   8        8S       -.25032961431520E-04 -.16950333457811E-05 0.43516703727146E-04 -.90807791877977E-04 -.11548148899837E-04
   9        9PX      -.56731673555701E-05 -.18345489593038E-03 -.16543386414356E-04 0.86810339499095E-04 0.15043469040318E-04
  10        9PY      0.30798378666208E-05 0.22520898893439E-02 -.38191328885916E-04 0.25140824824536E-04 -.24170753335678E-05
  11        9PZ      -.95410358716776E-06 0.96243168270538E-04 0.73899557255371E-05 -.94908682131894E-05 -.24458667374214E-06
  12       10PX      0.18913995040239E-04 0.60728726391327E-04 -.43234230802442E-03 0.39732131281429E-03 -.68675091976765E-04
  13       10PY      -.18904278361279E-04 -.16200190698472E-02 0.46801488710332E-03 0.57157581349855E-03 0.32883515073211E-04
  14       10PZ      0.30361473398626E-05 -.46922652533245E-04 -.73543844219911E-05 -.34559790430435E-05 -.50806075099496E-06
  15       11PX      -.32845109301550E-04 -.52686235462519E-03 -.34740523898275E-04 0.21769701538880E-03 -.18780907663764E-03
  16       11PY      0.18975147473808E-04 0.19140255643431E-02 0.25025434920792E-03 0.21498470601590E-03 -.41866801664583E-03
  17       11PZ      -.55833822102791E-04 0.63970275265096E-04 0.15056806119515E-03 -.59406727055009E-04 -.61683090235955E-04
  18       12PX      0.38200934650615E-03 0.36468572100323E-03 0.17664766209638E-02 -.24957207716249E-02 0.22312201195379E-03
  19       12PY      0.29311323578439E-03 -.31599594217174E-03 -.26194883543673E-02 -.40864940507211E-02 -.12888128622618E-03
  20       12PZ      -.22720392763700E-04 -.21921306260390E-04 -.42283762060937E-03 0.40693420256217E-03 -.16517847384265E-03
  21       13PX      -.68307378304104E-04 0.23051132447065E-03 0.57741664317302E-03 0.34934719944009E-04 0.35459509675262E-03
  22       13PY      0.18143760990501E-04 -.14284130246571E-03 0.25257711532295E-03 0.27088684194155E-03 0.33628458934816E-03
  23       13PZ      -.10283656340760E-04 -.20414909947889E-05 -.41129970410594E-04 0.10152096065346E-03 -.54622278672481E-04
  24       14PX      -.63237885375842E-04 -.23846568412028E-03 -.61597427373530E-03 -.15009329455144E-03 0.11813834540945E-03
  25       14PY      -.24965999191572E-04 -.20907943830717E-05 -.11752069438979E-03 -.81411611091050E-04 0.28702285399931E-04
  26       14PZ      0.64493823655644E-05 0.55978002655544E-06 0.18252945688502E-04 -.52636315850284E-04 -.13062758376199E-04
  27       15XX      -.17649140633073E-04 -.62184743901658E-02 0.23242345142498E-03 0.14885909962689E-03 0.82345266742303E-04
  28       15YY      0.47367635812596E-05 -.61132826645719E-02 0.12445328337460E-03 0.17559974255243E-03 0.48743565054931E-05
  29       15ZZ      -.37872159164171E-05 -.60660848032266E-02 -.22542003162621E-03 -.20304253224381E-03 0.58977844184891E-04
  30       15XY      0.32182056700020E-04 -.42296908314753E-04 -.29898779083744E-03 0.26268778001906E-03 -.66490116331354E-05
  31       15XZ      0.23887207387760E-06 0.93268715200266E-05 -.29441160996897E-04 -.25612077584679E-04 -.27638418613598E-05
  32       15YZ      -.89518163195115E-05 0.50882289014400E-05 0.25037835182129E-04 -.61463658507589E-05 -.19464585441565E-04
  33 2   C  1S       -.12337222164758E-05 0.29227867707223E-05 0.56406242019837E+00 0.19969409688546E-03 -.25040893319913E-02
  34        2S       0.98356030087910E-05 -.13833605488565E-04 0.45940602087894E+00 0.15910768306134E-03 -.20599345090764E-02
  35        3S       -.24706426012909E-04 -.14004269100465E-03 0.20443250931091E-01 -.61115365030579E-04 0.50202102516681E-03
  36        4S       -.11194050339556E-01 -.53488778217112E-03 0.17011162499561E-01 0.17430220485308E-02 -.11927457505700E-01
  37        5S       -.19263148401716E-01 0.35963614142672E-02 -.56632681587897E-01 0.31820643670184E-01 -.10130386331746E+00
  38        6PX      -.78817573649512E-04 -.15178575710479E-03 -.45378464290110E-03 -.53085060405518E-05 0.79210179174033E-04
  39        6PY      -.30302918351700E-04 0.89764178280594E-04 -.22008255669094E-03 -.37959316272102E-04 0.30528730354843E-04
  40        6PZ      -.74066749415148E-05 0.21356410575986E-05 -.87892103208103E-04 0.24173541052055E-05 0.46099709381331E-05
  41        7PX      0.82306785230389E-03 0.71116942636679E-03 0.78028486964231E-03 -.49535463219126E-04 -.14587035412227E-02
  42        7PY      0.32824121964485E-03 -.41268939486995E-03 0.17747898691590E-03 0.21748523078211E-03 -.60808410935268E-03
  43        7PZ      0.50392771524886E-04 -.90760867114355E-05 0.15977503604583E-03 0.64621147142416E-06 -.78784698549235E-04
  44        8PX      0.52927210689789E-02 -.36160880496716E-02 -.39838194028135E-02 -.30760876438059E-02 0.85729865319933E-02
  45        8PY      0.21433088397844E-02 0.60536672478367E-03 -.81128042424802E-03 -.21661717205167E-02 0.33999071586735E-02
  46        8PZ      0.48719041767203E-03 0.73457276122258E-04 -.39686126202988E-03 -.30282865792371E-04 0.48629607909184E-03
  47        9PX      0.27180691188084E-02 -.16921690446985E-03 0.21145412154782E-01 0.23121564722671E-01 0.54365202512080E-01
  48        9PY      -.10421039329912E-02 -.10649212627268E-02 0.21749930195046E-02 0.17121605166373E-01 0.15304659198625E-01
  49        9PZ      0.37488489363829E-03 -.15982096883247E-03 0.11268813274464E-02 -.14103936857577E-02 0.16708557810812E-02
  50       10XX      -.53169935877341E-03 0.31303184038094E-03 -.88495460859661E-02 -.10107546754586E-03 0.86262918682124E-03
  51       10YY      0.65675134317887E-04 -.78872727328333E-04 -.85586810030515E-02 0.29722534871674E-04 0.83438268845450E-04
  52       10ZZ      0.10150733265635E-03 -.15798057351303E-04 -.78005955531219E-02 -.43905565041963E-04 0.78089973910632E-04
  53       10XY      -.29534209781866E-03 -.47176991490633E-03 -.23886251555933E-03 0.97995122063418E-04 0.38192330486607E-03
  54       10XZ      -.89231708447460E-04 -.24083565523419E-04 -.32721003443892E-04 0.25087040740120E-04 0.31352284818569E-04
  55       10YZ      -.37318125159748E-04 0.95923025994275E-05 0.43715461343066E-05 0.52890537580575E-06 0.88015053360066E-05
  56 3   C  1S       -.74496090704574E-06 0.53611208255400E-05 0.20157926720033E-02 -.39911452273876E-05 -.43185906432644E-04
  57        2S       0.27924309135988E-05 -.17271089608815E-04 0.16267410929090E-02 -.47884856759162E-04 -.52008026410536E-04
  58        3S       -.15852616469609E-04 0.18462835823625E-03 0.50786177307319E-03 -.57997262142388E-04 0.16829402815665E-04
  59        4S       0.11442425656607E-02 -.42194030259863E-03 -.32407456170508E-02 0.30239084936931E-02 0.23269306032943E-02
  60        5S       0.10859700885306E-01 -.41404276663425E-02 0.19464802142539E-01 -.51904641386831E-01 0.36642112797585E-01
  61        6PX      0.29783681933368E-05 0.11803727252438E-04 -.67925738953199E-04 0.22724217992375E-04 0.21598592521612E-04
  62        6PY      -.11118631455900E-04 0.22858956655360E-04 0.33650054551087E-05 -.26594919364209E-04 -.97777531530661E-05
  63        6PZ      0.55640358098043E-06 -.72666365477129E-05 -.44500938991699E-05 0.24309119428972E-06 0.14833085255746E-05
  64        7PX      -.15719756147613E-04 0.41725331133689E-04 0.12111411702411E-03 -.10221141477806E-03 -.23221742695425E-03
  65        7PY      0.79876931835316E-04 -.30020994685827E-03 -.11282654700605E-02 0.13809715178723E-03 -.75731410116294E-04
  66        7PZ      -.29242515412406E-05 0.34872141062777E-04 0.62112060295596E-04 -.21938189202074E-05 -.10646528893917E-04
  67        8PX      0.70200301719111E-03 0.88834194596533E-03 -.39827102981625E-04 0.70230717777441E-03 0.13156909547051E-02
  68        8PY      -.26929214583471E-04 -.55973958358084E-03 0.13861335659251E-02 -.98311609552740E-03 0.36103706562651E-03
  69        8PZ      -.16665662562181E-04 -.95615821851448E-04 -.43760837557242E-04 0.83702390529529E-04 0.43352300455365E-04
  70        9PX      0.13348280964865E-02 -.14981436934873E-02 0.67158400541015E-03 -.64395050154483E-02 0.41567840408929E-02
  71        9PY      -.17711884639048E-02 -.56589333413261E-03 -.25573762315039E-02 0.10622512624235E-01 -.42828252882472E-02
  72        9PZ      0.18700693878235E-03 -.47835923985018E-04 0.21981901438377E-03 -.46323867906122E-03 0.64715142171152E-03
  73       10XX      0.42178605129055E-04 -.60658946348154E-04 0.14994339531414E-03 -.20661295227401E-03 -.15308371259665E-03
  74       10YY      -.36213687103317E-04 0.42531725533415E-04 0.74404569102806E-03 -.21912222453300E-03 0.10739104838103E-04
  75       10ZZ      0.28037924165510E-05 0.55245137894480E-04 -.75637154113230E-04 -.47917458543163E-04 0.27837591779747E-04
  76       10XY      -.38328520441915E-04 0.81743396989609E-04 0.14193940828800E-03 0.10533456042179E-03 0.60922825539598E-04
  77       10XZ      0.82258443706204E-06 0.21055080750580E-04 0.18151139393400E-04 0.91525088703407E-05 -.22758886523757E-04
  78       10YZ      0.91927690657446E-05 -.13726415360438E-04 -.53734594275060E-04 -.16300653579069E-04 0.14163901067953E-04
  79 4   C  1S       -.99055194241359E-06 0.67818641315735E-05 -.29472960970553E-04 0.23962780433219E-02 -.97115504360774E-04
  80        2S       0.44919062770803E-05 -.23478074034739E-04 -.53568790204689E-04 0.19493646170951E-02 -.56379414327682E-04
  81        3S       0.70500996579512E-04 0.58069177911509E-04 -.19608972628482E-03 0.12730574071657E-03 0.31310377312955E-03
  82        4S       -.15264004604351E-02 0.33781956684317E-03 0.18304304648200E-02 -.22507827783691E-02 -.29361348173450E-02
  83        5S       -.66217202348111E-02 0.44361953630189E-02 -.24819559060601E-01 0.27422488133670E-01 -.35832498327559E-01
  84        6PX      -.14565178692616E-04 -.52115718755309E-04 -.25462748918329E-04 -.47633798730817E-05 0.12931604425594E-04
  85        6PY      -.95759769121665E-05 -.78926405761132E-05 -.13872706848910E-04 0.57798783770021E-04 -.13172211944945E-04
  86        6PZ      -.28088777361779E-05 0.50746406349498E-05 0.20728939773202E-05 0.18938611437200E-05 -.52190266318965E-05
  87        7PX      0.89103492838023E-04 0.18673444465641E-03 0.23540596950510E-03 0.24707098932187E-03 -.18898846627550E-03
  88        7PY      0.42283321109300E-04 -.95218848638860E-04 0.17293773175438E-03 -.86157715506248E-03 0.18604111753023E-05
  89        7PZ      0.12186221135568E-04 -.29228450459925E-04 -.14332104555284E-05 -.66579155055220E-04 0.15697829250594E-04
  90        8PX      0.96866472621945E-03 -.42240142726925E-03 -.95349198611427E-03 0.31693211640012E-03 0.31519790870487E-02
  91        8PY      0.38866248512986E-03 -.36547558698083E-03 -.10285900347146E-02 0.10640135762302E-02 0.10167786064653E-02
  92        8PZ      0.29329036051803E-05 0.73780514423553E-04 -.72836011799673E-05 0.70438336757081E-04 -.38141851702110E-04
  93        9PX      0.12057100886275E-02 -.17295487229409E-02 0.17895744970465E-02 -.15577515320808E-02 0.12126150922134E-01
  94        9PY      0.74371144716651E-03 0.28129592212176E-04 0.49631881548619E-02 -.35533403380308E-02 0.66955280233411E-02
  95        9PZ      0.22238379425670E-04 -.50276477268471E-04 0.19934623083642E-03 -.40106208864961E-03 -.11076431721883E-03
  96       10XX      -.31301495026527E-05 -.58090434496992E-04 -.25334611494702E-03 0.16501491118455E-03 0.17584078981813E-03
  97       10YY      0.98977693950975E-05 -.50017005482413E-05 -.11462559755107E-03 0.65179228242781E-03 0.56294598372344E-04
  98       10ZZ      0.34912190416110E-04 -.15633008419907E-04 -.93094929216487E-04 -.13908351389702E-03 0.12824139752134E-03
  99       10XY      -.24736141632214E-04 -.11612032826114E-03 -.85048166628048E-04 -.21866124965666E-03 -.70444507001755E-05
 100       10XZ      0.18916920910823E-05 0.44967124192006E-05 -.28287193370032E-05 -.34262598457382E-04 0.18088234354017E-05
 101       10YZ      0.56145842286940E-05 0.40936169664128E-05 0.64005253476490E-05 0.63811399553038E-04 0.10711521455570E-04
 102 5   C  1S       -.59587131112129E-07 0.16418214223038E-04 -.19287817966781E-03 0.56420249151962E+00 0.35716416890270E-05
 103        2S       0.10632014859381E-05 -.34735247149440E-04 -.16508037061350E-03 0.45966705670750E+00 0.55240854223342E-05
 104        3S       0.64318112472732E-04 0.32968596713021E-04 -.20757960904439E-03 0.19703866463861E-01 0.23763676782399E-03
 105        4S       -.70470615865948E-03 -.18175309348553E-02 0.40617298410845E-03 0.11493268921142E-01 -.98318271920431E-03
 106        5S       0.12050503209659E-02 0.96544203247507E-03 0.10837104838686E-01 -.18358084087772E-01 -.15068248204257E-01
 107        6PX      -.19857170751852E-04 0.71913291664273E-04 -.18801191580318E-04 -.22976621401439E-03 -.13908199817528E-04
 108        6PY      -.39720120010697E-05 0.55106459487970E-04 -.14110387040137E-04 -.17918675022887E-03 0.48875732215265E-05
 109        6PZ      -.48711576033876E-05 -.63568050649888E-05 0.63793380401560E-05 0.41056043925495E-04 -.63830523332620E-05
 110        7PX      0.97210542898848E-04 -.59730864399335E-03 0.24719252176118E-03 0.44218619303785E-03 -.97224207741798E-05
 111        7PY      0.32771185551552E-04 -.54147158884079E-03 0.60935351099916E-04 0.10075378337739E-03 -.48348233034867E-05
 112        7PZ      0.19618747881285E-04 0.37553161152782E-04 -.35486895797876E-04 -.29426872351528E-04 0.34641900288895E-04
 113        8PX      0.21794065236875E-03 0.10621655320912E-02 -.25068307839186E-03 -.20681930138086E-02 0.66308770635890E-03
 114        8PY      0.39974518592743E-04 0.45444251020207E-03 -.29116590075105E-03 0.82079723917189E-04 -.28390647504153E-03
 115        8PZ      -.81878443940275E-04 -.86055980911997E-04 0.19725332527011E-04 0.23043623395183E-03 -.12040545717778E-03
 116        9PX      -.75043112172839E-03 -.91982122537625E-04 -.38486248168452E-02 0.74963882930838E-02 0.58119509258051E-02
 117        9PY      0.40054023984991E-03 -.39137619109694E-04 0.41998207965713E-02 -.50668355117126E-02 -.34466290042910E-03
 118        9PZ      0.10727728743400E-03 0.46537827116808E-04 0.66740653767301E-03 -.12692853898471E-02 -.71387940925696E-03
 119       10XX      -.31256905490249E-04 0.36048309589104E-03 -.76336580699203E-04 -.79718460377368E-02 -.37873663168189E-04
 120       10YY      0.11007797507153E-04 0.16285493795317E-03 -.46179473338985E-04 -.79654433795191E-02 0.41905575910566E-04
 121       10ZZ      0.26516107320247E-04 -.46683989848952E-04 -.88917383220033E-04 -.74764993048476E-02 0.10066370656377E-03
 122       10XY      -.24363844461702E-04 0.56515016633460E-03 -.46942988037186E-04 0.16018353385101E-03 -.32107894568518E-04
 123       10XZ      0.13932545847069E-04 -.11105903734001E-04 -.89027211738234E-05 0.11942602244760E-03 0.17636138427400E-04
 124       10YZ      -.35438928432850E-05 -.51837890736728E-04 0.16298970902652E-04 -.66224879977687E-04 -.10161667929800E-04
 125 6   C  1S       0.62379016644872E-04 -.44149670187209E-05 0.24155468744411E-02 -.52639946380148E-05 0.56395795543618E+00
 126        2S       -.57516835219307E-04 0.21079811671940E-04 0.19801201659400E-02 0.85397440819144E-06 0.45961378578076E+00
 127        3S       0.29708824925234E-03 0.12536664493188E-03 0.58043321139249E-03 0.12818730354624E-03 0.19723317669638E-01
 128        4S       -.22270369085499E-02 -.16706690166678E-02 -.39929578002123E-02 -.23856480323570E-02 0.14948508073247E-01
 129        5S       0.10761235450937E-01 -.26403541355121E-02 0.58205063220057E-01 0.24525455281569E-01 0.12517702106304E+00
 130        6PX      -.15297662936951E-03 -.18372312767788E-04 -.15415161352330E-04 0.24457841644205E-04 0.32363719103756E-03
 131        6PY      -.53347767419798E-04 0.16080883440443E-04 -.86943784413501E-05 0.23937541193967E-05 0.17170898294277E-03
 132        6PZ      0.45379633648570E-07 -.21611733074193E-05 0.33272019821686E-06 0.44745190894722E-07 0.39561075182758E-04
 133        7PX      -.17078017197724E-02 0.38172111621934E-04 0.11085815766353E-02 -.13448303997761E-03 -.33799122835101E-03
 134        7PY      -.64636040988839E-03 -.80996153601298E-04 0.42754694351342E-03 -.24193321128760E-04 -.18545162268382E-03
 135        7PZ      0.10491591974636E-04 0.11472127775458E-04 0.60656993083715E-04 0.15432090927022E-05 -.10977999715266E-03
 136        8PX      0.14495551015517E-01 -.14171260798269E-02 -.55581812795984E-02 -.26733220451169E-02 0.11897834729402E-01
 137        8PY      0.54293409466455E-02 -.10732197748507E-02 -.23734121692288E-02 -.78510036063604E-03 0.46205014291038E-02
 138        8PZ      0.34010677948253E-03 -.17174761143943E-03 -.20174714027604E-03 -.18690130339421E-03 0.63773869769469E-03
 139        9PX      0.46534648839931E-02 -.70362903513510E-03 0.13569792623556E-01 0.31789601481430E-02 0.26971952198035E-01
 140        9PY      0.22719533902186E-02 -.16592048682186E-03 0.65868756174780E-02 -.81756494872167E-04 0.11192181830267E-01
 141        9PZ      0.13183980779712E-03 0.68797895645580E-04 0.10595361058624E-02 0.14350711809333E-02 0.26808394921496E-02
 142       10XX      0.20435060854483E-02 0.36101578733468E-03 0.12933662967739E-02 0.23019858544297E-04 -.86355602068089E-02
 143       10YY      -.14372299322638E-03 -.33691617797415E-04 0.13108386057477E-03 0.46363234230685E-04 -.80085192719263E-02
 144       10ZZ      -.51556460197224E-03 0.44480647248835E-04 -.11950437659550E-03 0.33799178854280E-04 -.79804979997595E-02
 145       10XY      0.10936927094579E-02 0.18721392563754E-04 0.57310413118929E-03 0.34440584374492E-04 -.30018896209137E-03
 146       10XZ      0.51037463467273E-04 0.72427193618921E-06 0.82966687355019E-04 -.10581369991658E-04 -.17765309466601E-04
 147       10YZ      0.18608552384272E-04 -.18391942431606E-04 0.26605619824727E-04 0.30651851265877E-05 -.88770759581814E-05
 148 7   N  1S       0.55819923565249E+00 0.31161271930237E-04 -.30762258059778E-06 -.57841627366241E-06 -.27269133806411E-03
 149        2S       0.46243417047403E+00 0.24061761527161E-04 0.12127632898477E-04 0.29456752964059E-05 -.33165695827453E-03
 150        3S       0.18023476929479E-01 -.16273134995051E-04 -.18545791601372E-03 0.46884658429122E-04 0.35130799465740E-03
 151        4S       0.15589824455162E-01 -.84158312469162E-03 -.24588833955930E-02 -.13114037722980E-02 0.80816716246295E-02
 152        5S       0.48677730626972E-02 -.30968083975735E-03 -.39052906830407E-02 -.91149586136218E-03 -.48474767649399E-02
 153        6S       0.24861060360461E-04 0.42792267767760E-03 0.52800633879196E-03 0.36347693460958E-03 -.70724053011300E-03
 154        7S       -.21293935263210E-03 -.82235833831375E-03 -.19184258508461E-02 -.72356807734570E-03 0.60424246473539E-03
 155        8S       0.43866239088132E-04 -.21403512909935E-04 -.57850589294168E-04 0.28509605505441E-04 -.12856472030999E-04
 156        9PX      0.22450012148821E-02 0.99098274819292E-05 -.51576189345616E-05 0.79804097228081E-05 0.14532477892946E-03
 157        9PY      0.85272413478729E-03 0.19194734769842E-04 0.61533974259753E-05 -.42435361602818E-05 0.49178871728093E-04
 158        9PZ      -.24805520396832E-04 0.34872543662016E-05 -.11118565394009E-05 0.68006360109679E-05 -.72243057535167E-06
 159       10PX      -.29156092188289E-02 -.12322783339839E-03 -.33291554132402E-03 -.54605143991799E-04 0.11652055051197E-02
 160       10PY      -.10888633192719E-02 -.10491942828331E-03 -.15604894630275E-03 0.79747858042402E-05 0.44877909463253E-03
 161       10PZ      0.47696123729043E-04 -.13150935785413E-04 0.77910217845236E-05 -.29909759376763E-04 0.10701173310570E-04
 162       11PX      0.48186015178700E-02 -.26563890789246E-03 -.41053777648439E-03 -.29122750447071E-03 0.21947236319060E-02
 163       11PY      0.17894542425187E-02 0.93034952580501E-04 0.50556721582717E-05 -.21546938039894E-03 0.75271289136857E-03
 164       11PZ      -.12999237247771E-03 0.63590244059563E-04 0.90597645126164E-04 0.11875150464181E-03 -.13084495302924E-03
 165       12PX      0.54405458716626E-03 -.52527551107407E-04 -.21807904249162E-02 0.12457392829853E-03 -.34526805834159E-02
 166       12PY      0.98852728148074E-04 -.13089351771213E-04 -.11325645059130E-02 0.17819483164240E-03 -.14029743896376E-02
 167       12PZ      -.29341634622743E-04 -.29731238678247E-04 -.21269275963548E-03 -.29172296544314E-03 -.52490602440289E-03
 168       13PX      -.22171230046124E-03 0.18034991440421E-03 0.43585552931294E-04 0.20562519156027E-03 -.30500049260326E-03
 169       13PY      -.10537595279077E-03 -.18696491357937E-05 -.22427439679976E-03 0.45628732775743E-05 -.27264757283214E-03
 170       13PZ      -.66825821936599E-05 -.98420025181253E-05 -.53524912284131E-04 -.10125864321623E-03 -.14890960552602E-03
 171       14PX      0.13723032104547E-04 -.19393455707001E-03 -.38720171787585E-03 -.19429081719563E-03 0.15298718430690E-03
 172       14PY      0.33025869825209E-04 0.31155032133334E-05 0.78194289144753E-04 0.45456501227200E-04 0.48341417412238E-05
 173       14PZ      -.30319105670469E-05 0.10234317739843E-05 -.47575173749405E-06 0.49327616905706E-04 0.47728103203670E-04
 174       15XX      -.72786967755340E-02 -.63427865163041E-04 -.11752374889730E-03 -.87106926482926E-05 0.30270454488400E-03
 175       15YY      -.67233843250624E-02 -.14445105643214E-05 0.92670417356459E-05 0.17132439084930E-04 -.23463089281027E-03
 176       15ZZ      -.65329360408164E-02 0.94826481830386E-05 0.31021623781105E-04 0.21279691324808E-04 -.31245494555391E-03
 177       15XY      -.27654624937606E-03 -.45237738138507E-04 -.53216102925628E-04 -.13108439875985E-04 0.26533839612379E-03
 178       15XZ      0.28693698281025E-05 0.28515981123719E-05 0.22549035868332E-04 0.52876419812938E-05 -.19082030378533E-04
 179       15YZ      0.49193810266080E-05 0.28230542127297E-05 0.91542782247775E-05 0.71618075841695E-06 -.63606192045204E-05
 180 8   H  1S       -.62274107247452E-05 -.23772698872209E-04 0.15887837935320E-04 0.29084520771943E-05 -.24936733987349E-04
 181        2S       0.94421880415895E-06 0.48763723619618E-03 0.94687486293644E-04 0.17121187609682E-03 0.74362869416637E-04
 182        3S       0.77499771890603E-04 0.29718772126531E-03 -.35070274393812E-03 -.19941960848853E-03 0.92635455840089E-04
 183        4S       0.42173195401697E-03 0.48598169554194E-04 -.44942260150078E-03 -.25581522514485E-02 0.10268984853584E-02
 184        5PX      -.23569880263554E-04 0.35022666566652E-04 -.32974973463658E-04 0.33678489822561E-05 -.58487425814051E-04
 185        5PY      0.12429876685654E-04 -.12100640861028E-03 -.57869244354139E-04 -.41197895224387E-04 -.84653590400712E-04
 186        5PZ      0.36480972977149E-05 0.63039643036980E-05 0.79773330809698E-05 -.51143062531368E-05 -.22113385084935E-05
 187 9   H  1S       0.18136693988402E-04 0.11056527030181E-04 -.86826885457475E-05 -.12015284178031E-04 0.40717451675723E-04
 188        2S       -.15711633826467E-03 0.74771119465846E-04 0.19043437801107E-03 -.11357857478905E-03 -.48435427228869E-03
 189        3S       -.21620118890729E-03 0.80812843671002E-04 0.58563926739060E-03 -.27974825434376E-03 -.14506168214926E-02
 190        4S       -.11448054395953E-03 0.52706316341760E-03 -.76087192223245E-03 0.11942876397551E-03 -.42877010602031E-02
 191        5PX      0.11746389086823E-04 -.32369700349188E-04 -.50472338069149E-04 0.24647205298832E-04 0.56534082847753E-04
 192        5PY      0.12705480593674E-04 0.43365090104874E-04 -.90970990912751E-05 0.12393556462128E-03 0.65372821835419E-04
 193        5PZ      -.39665710297550E-05 0.59452250113198E-06 0.92333910252161E-05 -.12110356612292E-05 -.11936998170164E-04
 194 10  H  1S       0.15734793534397E-05 0.18424998211351E-04 0.26828947773464E-04 0.72858255317947E-04 0.27641388439913E-05
 195        2S       -.96986360208499E-06 0.87544446766128E-04 -.15621572934105E-03 0.83862024337486E-03 -.21656408597062E-04
 196        3S       -.32120906139311E-04 -.25411636598929E-03 0.56994066472765E-03 -.11104147650315E-02 -.33657853531883E-03
 197        4S       0.46223956591186E-03 0.94402908487552E-04 0.18793992189061E-02 -.29869831654845E-02 -.19246626023440E-02
 198        5PX      0.65799110203340E-06 -.10901371142422E-03 0.33626021098985E-04 -.53989130868697E-03 0.96464149313951E-06
 199        5PY      -.45182453696867E-05 -.59788240547254E-04 0.15180229867656E-04 0.13605161521482E-03 -.24828838594759E-05
 200        5PZ      0.34811665923492E-05 0.69820151887736E-05 -.26035664011632E-05 0.11679173469047E-03 0.25376833437899E-05
                           6         7         8         9        10
                           O         O         O         O         O
     Eigenvalues --  -.10352410548421E+02 -.10339643843335E+02 -.10926152340805E+01 -.10359445423374E+01 -.91869596222668E+00
   1 1   N  1S       0.61019807705894E-05 0.36497292851224E-05 -.71716351697440E-01 0.15478239328284E-01 0.66307159112798E-01
   2        2S       -.15750538955317E-04 -.64343771316632E-05 -.11247176661936E+00 0.24298424204380E-01 0.10498077970304E+00
   3        3S       -.14693591207115E-04 0.19270083312881E-04 0.30558195581742E+00 -.66843109074676E-01 -.29351559466488E+00
   4        4S       0.10379515816171E-02 0.34441579458471E-03 0.20326593567288E+00 -.42971518185738E-01 -.21943232478535E+00
   5        5S       -.16287371404451E-02 -.96218482082683E-03 -.13957047880675E+00 0.25026725255578E-01 0.49690848167591E-01
   6        6S       0.93021831900837E-03 0.68178614023900E-03 -.19630690752360E-01 0.15271197837729E-01 0.28933538230435E-01
   7        7S       -.87216662790181E-03 -.59190906710765E-03 0.22436249771327E-01 -.23786601153817E-01 -.19102426065109E-01
   8        8S       -.23849109135521E-04 0.55030891027782E-05 -.67097529739982E-05 -.27883617205322E-03 0.30228419169711E-03
   9        9PX      -.17218487246057E-04 0.97615654002754E-05 -.93950285616862E-03 -.61243083922374E-02 -.20899437597448E-01
  10        9PY      0.21647713108753E-04 0.21377178468299E-04 0.53684198034842E-01 -.12574744742341E-01 -.28183630985169E-01
  11        9PZ      0.15276039820584E-05 -.16794998087080E-05 0.27604908302957E-04 0.14732287051549E-03 0.10121911570439E-02
  12       10PX      0.83435610905184E-04 -.61603590842852E-04 -.39285938759745E-02 -.81631214341783E-02 -.29016582083905E-01
  13       10PY      -.76576091416817E-04 -.60023881303112E-04 0.82172596497771E-01 -.19252911410260E-01 -.43080119406081E-01
  14       10PZ      -.74145675590890E-05 0.92012939344155E-05 0.30367105017005E-03 0.17611233971844E-03 0.11498126473917E-02
  15       11PX      -.45337692504000E-04 0.10697857347193E-03 -.64934269638520E-02 -.29012374249268E-02 -.87119058538436E-02
  16       11PY      0.42402980489082E-03 0.32529466741943E-03 0.30425451687352E-01 -.74944958596381E-02 -.20537635697691E-01
  17       11PZ      0.45861513379651E-04 -.37834257559492E-04 0.34012999395430E-03 -.38614030838294E-03 0.63365124930864E-03
  18       12PX      -.13499058363766E-02 0.81066252384649E-03 0.73071814934072E-02 0.26501846319026E-02 0.23532627779871E-02
  19       12PY      -.81034415448848E-03 -.35590935976048E-03 -.35369280387847E-01 0.69796054766859E-02 0.77476243353364E-02
  20       12PZ      0.11903920095236E-03 0.11937461449604E-03 -.47643994505840E-03 -.90142411678083E-03 0.21385429386705E-03
  21       13PX      -.27691126551663E-03 -.35854996639667E-03 0.49721885045516E-02 -.19518896404321E-02 -.62053482329248E-02
  22       13PY      0.29932429192003E-03 0.19794652406595E-03 0.37096841709406E-02 0.13805439380488E-02 0.70168884428848E-02
  23       13PZ      0.53480269608513E-04 0.99600565750979E-04 0.54270591926299E-04 -.16800822754483E-03 0.52668578239029E-03
  24       14PX      0.26547244962980E-03 0.14029774403963E-03 -.56473826240247E-02 0.53089329565663E-02 0.45545177256929E-02
  25       14PY      -.15229023651203E-04 -.70799891271203E-04 -.14691778445772E-02 0.14886390944173E-03 -.12287472260516E-02
  26       14PZ      -.20507657132600E-04 -.12057722208350E-04 -.46251988930855E-04 -.40562998514286E-04 -.46059273630879E-04
  27       15XX      -.38027270354046E-04 -.46580124486676E-06 0.33352491936104E-02 -.25635633477495E-03 -.46705399484491E-02
  28       15YY      -.93789883973785E-04 -.52697610523473E-04 0.71536544537260E-02 -.21180852500774E-02 0.59740211941560E-04
  29       15ZZ      -.25527160101733E-04 0.27905851706782E-05 -.86099547118750E-02 0.15952868357872E-02 0.41752987395910E-02
  30       15XY      0.27792864236274E-04 0.12630918021677E-04 0.22453915675478E-03 -.10384829879472E-02 -.56058300312016E-02
  31       15XZ      -.82797582338811E-07 -.20996887407221E-05 -.62416496500664E-03 0.13005804605802E-03 0.52369595543192E-03
  32       15YZ      -.49881014646125E-05 0.56823935367210E-05 -.98209173937123E-04 0.18939983681951E-04 0.38161410238417E-03
  33 2   C  1S       -.52646536115375E-04 -.21065963917623E-02 -.59946732433692E-01 -.49239552340712E-02 -.21876858822210E-01
  34        2S       -.71021683956600E-04 -.17286148971849E-02 -.92040497177683E-01 -.77518481995389E-02 -.33780644413442E-01
  35        3S       -.11944798311944E-03 0.36106554884976E-03 0.24412903530238E+00 0.19833619343792E-01 0.92554108202116E-01
  36        4S       0.51102830549475E-02 -.38227318591710E-02 0.96166345382156E-01 -.69635513275742E-01 0.47743209869639E-01
  37        5S       0.17119938998071E-01 0.29738449635560E-01 -.39769914353579E-02 -.64867029659060E+00 -.24729943400118E-01
  38        6PX      0.12585728472901E-04 -.20664079584931E-04 0.33395790216675E-01 -.26128975294873E-01 -.27367665412674E-01
  39        6PY      0.20585676693612E-04 -.20358359944799E-04 0.72900731648677E-03 -.50351050929236E-02 0.64579136150358E-01
  40        6PZ      -.10340087097933E-04 0.56693485576136E-05 -.30877243824144E-02 -.13050510783987E-03 -.54999446657737E-04
  41        7PX      -.76406404708637E-04 0.33734811990280E-03 0.56818563319836E-01 -.28010879101654E-01 -.43058111148348E-01
  42        7PY      -.66838682812129E-04 0.13127805528434E-02 -.14573549491338E-02 -.25068746586466E-02 0.99694267943318E-01
  43        7PZ      0.40659274178957E-04 -.69138266117567E-04 -.46469831335450E-02 0.59428613293319E-03 0.33532591539068E-03
  44        8PX      -.31634509190282E-02 -.24817532302140E-02 0.17108149224449E-01 0.32679554263654E-01 -.98628933865724E-02
  45        8PY      -.22216373627417E-03 -.34831482554710E-02 0.16522872411940E-01 0.13683139015626E-01 0.18610030225223E-01
[...]
 196         V       0.26717219635061E+02 0.62425546469401E+02
 197         V       0.26804988670146E+02 0.62493028022489E+02
 198         V       0.26937777212396E+02 0.62600278981959E+02
 199         V       0.39675969195215E+02 0.91294072397648E+02
 200         V       0.39840335416589E+02 0.91455935622629E+02
 Orbital energies and kinetic energies (beta):
                                 1                 2
   1         O       -.14471074201986E+02 0.22049382262390E+02
   2         O       -.14470488932309E+02 0.22043384095455E+02
   3         O       -.10404927935925E+02 0.15973053472437E+02
   4         O       -.10384026272905E+02 0.15972826032860E+02
   5         O       -.10360692547035E+02 0.15945135918721E+02
   6         O       -.10349670393571E+02 0.15959876208851E+02
   7         O       -.10340770670394E+02 0.15951010118209E+02
   8         O       -.10853995778262E+01 0.17046713850228E+01
   9         O       -.10273630092593E+01 0.22398972312187E+01
  10         O       -.91695509525579E+00 0.18822299254952E+01
  11         O       -.86158913265386E+00 0.16810486930075E+01
  12         O       -.73317572991525E+00 0.15462756368931E+01
  13         O       -.66952650305434E+00 0.14619650984108E+01
  14         O       -.64217952052373E+00 0.13639983743093E+01
  15         O       -.55932706626691E+00 0.15309565328351E+01
  16         O       -.52433427970321E+00 0.11816564371934E+01
  17         O       -.51561929564742E+00 0.11610512068270E+01
  18         O       -.48381629608286E+00 0.15731253665980E+01
  19         O       -.47540145239100E+00 0.18459293210466E+01
  20         O       -.44312532109463E+00 0.13534337842391E+01
  21         O       -.44147670853516E+00 0.14995406107528E+01
  22         O       -.38786714335369E+00 0.17727743866611E+01
  23         O       -.37384202813358E+00 0.14332468444885E+01
  24         V       -.11189386537376E+00 0.12394331118525E+01
  25         V       0.16238326571216E-02 0.83354020435359E-02
  26         V       0.43509132058592E-02 0.36305325508064E-02
  27         V       0.10068910408568E-01 0.39865800584821E-01
  28         V       0.12892040276070E-01 0.19692974628887E-01
  29         V       0.13458599524336E-01 0.16081298840977E-01
  30         V       0.17285436861159E-01 0.20376972561621E-01
  31         V       0.18875035162677E-01 0.22232531300559E-01
  32         V       0.19346495183660E-01 0.17823150296236E-01
  33         V       0.20835152386442E-01 0.21070395157661E-01
  34         V       0.27377822027679E-01 0.30199384482059E-01
  35         V       0.39898676958274E-01 0.13751924308658E+01
  36         V       0.44210734183682E-01 0.33244368978393E+00
  37         V       0.54503186253617E-01 0.20078513152355E+00
  38         V       0.57628186806903E-01 0.28960250873358E+00
  39         V       0.61781062552113E-01 0.85922195329929E-01
  40         V       0.64041979682384E-01 0.97387249346137E+00
  41         V       0.67349441689713E-01 0.39197602398689E+00
  42         V       0.69274797341610E-01 0.17080030770545E+00
  43         V       0.72834289947399E-01 0.16005004220645E+00
  44         V       0.77845678807591E-01 0.16634588483806E+00
  45         V       0.82159203028928E-01 0.16327670506509E+00
  46         V       0.91130931262686E-01 0.30312483155470E+00
  47         V       0.93682476769517E-01 0.93480582064611E+00
  48         V       0.10474271542800E+00 0.40898668181559E+00
  49         V       0.12134421157306E+00 0.26353242004840E+00
  50         V       0.12426082860314E+00 0.51459059392798E+00
  51         V       0.14296899590777E+00 0.42640754714704E+00
  52         V       0.14397159730163E+00 0.43344551352991E+00
  53         V       0.15236402254610E+00 0.57465319313246E+00
  54         V       0.15817592067345E+00 0.49116198756278E+00
  55         V       0.16616170175001E+00 0.40799896413726E+00
  56         V       0.16791956572701E+00 0.65382876299404E+00
  57         V       0.17797802295710E+00 0.51785458260376E+00
  58         V       0.18195890154653E+00 0.41414442584086E+00
  59         V       0.18761136907038E+00 0.48678019874696E+00
  60         V       0.19500850040192E+00 0.61940360333019E+00
  61         V       0.19621534060798E+00 0.42040180603274E+00
  62         V       0.20353285966291E+00 0.36598938598392E+00
  63         V       0.20602409306812E+00 0.37473278575569E+00
  64         V       0.21053213767904E+00 0.37964692241790E+00
  65         V       0.21465083252663E+00 0.88197146951518E+00
  66         V       0.23568066140723E+00 0.55034832996172E+00
  67         V       0.24062054776559E+00 0.54339216433186E+00
  68         V       0.26174867675372E+00 0.47792755351281E+00
  69         V       0.27213642397017E+00 0.87365563405484E+00
  70         V       0.27327612537686E+00 0.96727799072930E+00
  71         V       0.28961604563725E+00 0.67185283441422E+00
  72         V       0.29795700658147E+00 0.94855371600971E+00
  73         V       0.30257191687452E+00 0.81436092949235E+00
  74         V       0.31466975869965E+00 0.56648677703981E+00
  75         V       0.32121674769192E+00 0.11616008265161E+01
  76         V       0.33520350497019E+00 0.56577893455610E+00
  77         V       0.34808275228154E+00 0.83334002554300E+00
  78         V       0.35304745586171E+00 0.83946265584490E+00
  79         V       0.36247515649504E+00 0.12611993394495E+01
  80         V       0.37537605372534E+00 0.73060403395893E+00
  81         V       0.38164108091995E+00 0.10064392562042E+01
  82         V       0.40444608767658E+00 0.11103511312756E+01
  83         V       0.43406596787002E+00 0.11032152670667E+01
  84         V       0.45275445797732E+00 0.15414869962586E+01
  85         V       0.48608726664184E+00 0.18707800295469E+01
  86         V       0.52293963655934E+00 0.15937595222348E+01
  87         V       0.57563396428059E+00 0.13419764139343E+01
  88         V       0.58539989259059E+00 0.12579638370163E+01
  89         V       0.60402393580139E+00 0.13652199555395E+01
  90         V       0.63199148444468E+00 0.14870234678201E+01
  91         V       0.63525524495503E+00 0.16092222493277E+01
  92         V       0.65476881170582E+00 0.16111346414848E+01
  93         V       0.66365383734562E+00 0.18900037226597E+01
  94         V       0.68043792114869E+00 0.16343311385590E+01
  95         V       0.68943682720782E+00 0.17082330819306E+01
  96         V       0.70187188837016E+00 0.15550171749595E+01
  97         V       0.71233273465520E+00 0.16101738917098E+01
  98         V       0.74408110196413E+00 0.16451621017913E+01
  99         V       0.76577892772990E+00 0.15919071382769E+01
 100         V       0.79712947576512E+00 0.15927989181725E+01
 101         V       0.82249990573695E+00 0.19966545161100E+01
 102         V       0.82657433677052E+00 0.19348556993262E+01
 103         V       0.84028570234351E+00 0.18866230406331E+01
 104         V       0.85777174559232E+00 0.20510573581704E+01
 105         V       0.87394826210454E+00 0.16879682005176E+01
 106         V       0.89848562832283E+00 0.20760007221315E+01
 107         V       0.92578839729257E+00 0.18448066547489E+01
 108         V       0.94241257252449E+00 0.19707743815725E+01
 109         V       0.94984825461039E+00 0.22060638511585E+01
 110         V       0.96755177435244E+00 0.23143401765199E+01
 111         V       0.10038818095745E+01 0.21390895477333E+01
 112         V       0.10260203876125E+01 0.20516797607063E+01
 113         V       0.10312108980214E+01 0.20768422515220E+01
 114         V       0.10837879380378E+01 0.21144800188605E+01
 115         V       0.10979697248366E+01 0.21605365201517E+01
 116         V       0.11366868728263E+01 0.26029845094539E+01
 117         V       0.11421803628641E+01 0.21679059210840E+01
 118         V       0.11670092975114E+01 0.22108256115704E+01
 119         V       0.11946979316203E+01 0.20810624747196E+01
 120         V       0.12438109250033E+01 0.22053268787416E+01
 121         V       0.13008215067470E+01 0.24734307405074E+01
 122         V       0.13220154179336E+01 0.22282834577192E+01
 123         V       0.13312616951303E+01 0.22629922762563E+01
 124         V       0.13575169652415E+01 0.22378358760940E+01
 125         V       0.14013112297731E+01 0.24176671673480E+01
 126         V       0.15000514439750E+01 0.25993788858100E+01
 127         V       0.15537896068281E+01 0.24967179346908E+01
 128         V       0.15687183222554E+01 0.24396587232262E+01
 129         V       0.15842030926779E+01 0.24493522057083E+01
 130         V       0.16247053967556E+01 0.26236056673110E+01
 131         V       0.16561874602539E+01 0.24529607469933E+01
 132         V       0.16811782807651E+01 0.27635392407146E+01
 133         V       0.17031156703223E+01 0.25965767725613E+01
 134         V       0.17360404871350E+01 0.27075536049204E+01
 135         V       0.17832690145552E+01 0.28624830301838E+01
 136         V       0.18178015843734E+01 0.29412906427172E+01
 137         V       0.18489809454981E+01 0.27909670774650E+01
 138         V       0.18951448557450E+01 0.29589419552595E+01
 139         V       0.19344225497178E+01 0.32647258360580E+01
 140         V       0.19639613043328E+01 0.31671055174981E+01
 141         V       0.19757063264896E+01 0.31592212015582E+01
 142         V       0.20185809459360E+01 0.32993469660399E+01
 143         V       0.20868684683186E+01 0.34680728562066E+01
 144         V       0.21237385231088E+01 0.33485360217677E+01
 145         V       0.21488827572993E+01 0.32998049912668E+01
 146         V       0.21607646634452E+01 0.33301862810360E+01
 147         V       0.22028344862773E+01 0.37522877811528E+01
 148         V       0.22255062772390E+01 0.34536984500607E+01
 149         V       0.23340843221233E+01 0.41985997645833E+01
 150         V       0.23520622070772E+01 0.38795630206429E+01
 151         V       0.24038345743018E+01 0.39588119168147E+01
 152         V       0.24834893150966E+01 0.41981074654898E+01
 153         V       0.25113094364797E+01 0.38951050565433E+01
 154         V       0.26051201878021E+01 0.46778547159778E+01
 155         V       0.26600524223971E+01 0.46886077380910E+01
 156         V       0.27080561695074E+01 0.49552645508928E+01
 157         V       0.27329357006616E+01 0.52089562408906E+01
 158         V       0.27771022885470E+01 0.49426673872269E+01
 159         V       0.27911326303817E+01 0.55708737450759E+01
 160         V       0.28194223479529E+01 0.47938262374820E+01
 161         V       0.28381873128588E+01 0.46512148860176E+01
 162         V       0.28649322296708E+01 0.46135875197725E+01
 163         V       0.29000027734517E+01 0.49884166457520E+01
 164         V       0.29373624196985E+01 0.60982764293503E+01
 165         V       0.29607497380858E+01 0.58371513127619E+01
 166         V       0.29933434611260E+01 0.52700369561105E+01
 167         V       0.29971700293518E+01 0.57758832919352E+01
 168         V       0.30369060260467E+01 0.56886982055534E+01
 169         V       0.30650584575097E+01 0.67440342804951E+01
 170         V       0.30882766061040E+01 0.61343006326709E+01
 171         V       0.31074764280961E+01 0.61964456765692E+01
 172         V       0.31838391736097E+01 0.60760017290652E+01
 173         V       0.32404324345340E+01 0.69224954808661E+01
 174         V       0.32689594964696E+01 0.67623156943875E+01
 175         V       0.34067374333654E+01 0.70958807140845E+01
 176         V       0.34253432822642E+01 0.66312529602253E+01
 177         V       0.34537348254970E+01 0.69572993066170E+01
 178         V       0.35216063199788E+01 0.70531391435923E+01
 179         V       0.35784475565102E+01 0.64419667816261E+01
 180         V       0.36128125019951E+01 0.71055244942062E+01
 181         V       0.36756549326922E+01 0.66804676613737E+01
 182         V       0.39854846451073E+01 0.89999109507495E+01
 183         V       0.40581422706810E+01 0.75568086892130E+01
 184         V       0.40832035316421E+01 0.88170794138890E+01
 185         V       0.41172108066743E+01 0.87487492486518E+01
 186         V       0.42307685545060E+01 0.74835848287815E+01
 187         V       0.43551269437234E+01 0.77270819082626E+01
 188         V       0.44142312482226E+01 0.93148629014679E+01
 189         V       0.44657140044554E+01 0.89661630230551E+01
 190         V       0.46480563401041E+01 0.86519870042229E+01
 191         V       0.50746155128311E+01 0.92908997155732E+01
 192         V       0.51645235181571E+01 0.10302413015466E+02
 193         V       0.57455345934940E+01 0.10522482766990E+02
 194         V       0.26642182473603E+02 0.62343029621881E+02
 195         V       0.26714063236601E+02 0.62427896762672E+02
 196         V       0.26728285620969E+02 0.62427074649529E+02
 197         V       0.26802299515124E+02 0.62494217411468E+02
 198         V       0.26940077649086E+02 0.62598895848312E+02
 199         V       0.39672704523413E+02 0.91296280838880E+02
 200         V       0.39846722268598E+02 0.91451301363072E+02
 Total kinetic energy from orbitals= 2.996867871839D+02
                          Isotropic Fermi Contact Couplings
        Atom                 a.u.       MegaHertz       Gauss      10(-4) cm-1
     1  N(14)             -0.01636      -5.28657      -1.88638      -1.76341
     2  C(13)              0.04420      49.68850      17.73009      16.57430
     3  C(13)             -0.02299     -25.84683      -9.22279      -8.62157
     4  C(13)              0.01297      14.58057       5.20271       4.86355
     5  C(13)              0.02227      25.03222       8.93212       8.34985
     6  C(13)             -0.04262     -47.91004     -17.09549     -15.98107
     7  N(14)              0.01544       4.98721       1.77956       1.66356
     8  H(1)               0.00051       2.29056       0.81733       0.76405
     9  H(1)              -0.00461     -20.58690      -7.34592      -6.86705
    10  H(1)              -0.00743     -33.21557     -11.85214     -11.07952
 --------------------------------------------------------
       Center         ----  Spin Dipole Couplings  ----
                      3XX-RR        3YY-RR        3ZZ-RR
 --------------------------------------------------------
     1   Atom        0.119588      0.127333     -0.246921
     2   Atom       -0.332843     -0.340034      0.672877
     3   Atom        0.032983      0.040454     -0.073437
     4   Atom       -0.148076     -0.136126      0.284201
     5   Atom       -0.176962     -0.203511      0.380473
     6   Atom        0.108966      0.014460     -0.123427
     7   Atom       -0.294779     -0.222784      0.517563
     8   Atom        0.000695      0.005080     -0.005775
     9   Atom        0.004500      0.001853     -0.006353
    10   Atom        0.019512     -0.014070     -0.005442
 --------------------------------------------------------
                        XY            XZ            YZ
 --------------------------------------------------------
     1   Atom        0.013923     -0.012789     -0.008580
     2   Atom        0.002773     -0.042166      0.019856
     3   Atom       -0.000169     -0.003633      0.000248
     4   Atom        0.005519     -0.012748      0.002690
     5   Atom       -0.021052      0.103867     -0.052727
     6   Atom        0.042325      0.008709     -0.000660
     7   Atom       -0.030190     -0.002949      0.021228
     8   Atom       -0.000747      0.000179     -0.000829
     9   Atom        0.019271      0.000389      0.000127
    10   Atom       -0.016664     -0.007446      0.002669
 --------------------------------------------------------


 ---------------------------------------------------------------------------------
              Anisotropic Spin Dipole Couplings in Principal Axis System
 ---------------------------------------------------------------------------------

       Atom             a.u.   MegaHertz   Gauss  10(-4) cm-1        Axes

              Baa    -0.2475    -9.547    -3.407    -3.185  0.0340  0.0216  0.9992
     1 N(14)  Bbb     0.1091     4.207     1.501     1.403  0.7919 -0.6104 -0.0137
              Bcc     0.1385     5.340     1.906     1.781  0.6097  0.7918 -0.0379
 
              Baa    -0.3421   -45.912   -16.382   -15.315 -0.4302  0.9020 -0.0355
     2 C(13)  Bbb    -0.3329   -44.670   -15.939   -14.900  0.9018  0.4312  0.0293
              Bcc     0.6750    90.582    32.322    30.215 -0.0417  0.0194  0.9989
 
              Baa    -0.0736    -9.871    -3.522    -3.293  0.0341 -0.0021  0.9994
     3 C(13)  Bbb     0.0331     4.442     1.585     1.482  0.9991  0.0242 -0.0340
              Bcc     0.0405     5.429     1.937     1.811 -0.0241  0.9997  0.0029
 
              Baa    -0.1506   -20.211    -7.212    -6.742  0.9323 -0.3606  0.0296
     4 C(13)  Bbb    -0.1340   -17.978    -6.415    -5.997  0.3606  0.9327  0.0050
              Bcc     0.2846    38.190    13.627    12.739 -0.0294  0.0060  0.9996
 
              Baa    -0.2152   -28.874   -10.303    -9.631  0.5081  0.8612 -0.0124
     5 C(13)  Bbb    -0.1891   -25.378    -9.055    -8.465  0.8426 -0.5000 -0.1999
              Bcc     0.4043    54.252    19.358    18.096  0.1784 -0.0912  0.9797
 
              Baa    -0.1238   -16.612    -5.927    -5.541 -0.0405  0.0172  0.9990
     6 C(13)  Bbb    -0.0016    -0.216    -0.077    -0.072 -0.3552  0.9343 -0.0305
              Bcc     0.1254    16.828     6.005     5.613  0.9339  0.3561  0.0317
 
              Baa    -0.3058   -11.794    -4.208    -3.934  0.9393  0.3430 -0.0055
     7 N(14)  Bbb    -0.2124    -8.192    -2.923    -2.733 -0.3431  0.9389 -0.0287
              Bcc     0.5182    19.985     7.131     6.666 -0.0047  0.0288  0.9996
 
              Baa    -0.0058    -3.116    -1.112    -1.039 -0.0188  0.0744  0.9971
     8 H(1)   Bbb     0.0006     0.305     0.109     0.102  0.9863  0.1646  0.0063
              Bcc     0.0053     2.811     1.003     0.938 -0.1637  0.9835 -0.0765
 
              Baa    -0.0161    -8.613    -3.073    -2.873 -0.6825  0.7307  0.0176
     9 H(1)   Bbb    -0.0064    -3.391    -1.210    -1.131  0.0026 -0.0216  0.9998
              Bcc     0.0225    12.004     4.283     4.004  0.7309  0.6824  0.0128
 
              Baa    -0.0209   -11.175    -3.988    -3.728  0.3848  0.9226  0.0260
    10 H(1)   Bbb    -0.0073    -3.888    -1.387    -1.297  0.2012 -0.1113  0.9732
              Bcc     0.0282    15.063     5.375     5.024  0.9008 -0.3693 -0.2285
 

 ---------------------------------------------------------------------------------

 No NMR shielding tensors so no spin-rotation constants.
 Leave Link  601 at Fri May 26 03:05:05 2023, MaxMem= 3276800000 cpu:       5.5
 (Enter /local/g09-source/g09/l9999.exe)

 Test job not archived.
 1\1\GINC-WUX11\SP\UwB97XD\Gen\C5H3N2(2)\ISSLERK\26-May-2023\0\\#p wB97
 XD/GEN 6D Iop(6/7=3) Iop(9/40=14) scf(maxcyc=200,conver=8) nosym Guess
 (Read,TCheck) GFInput\\Comment\\0,2\N,0,0.951625761,-0.929187012,-0.00
 1117508\C,0,-0.241188244,-0.114338,0.054647412\C,0,0.059828731,1.26207
 6773,-0.000726227\C,0,1.357319909,1.360495858,0.064445475\C,0,1.942176
 942,-0.012305713,-0.055371547\C,0,-1.571063974,-0.616094058,-0.0182989
 16\N,0,-2.670272354,-1.024246633,-0.017328757\H,0,-0.55125113,2.236738
 023,0.01385189\H,0,2.426612692,1.966126872,0.012732658\H,0,3.139414519
 ,-0.38545324,-0.302740791\\Version=EM64L-G09RevA.02\HF=-301.6453997\S2
 =0.783834\S2-1=0.\S2A=0.750838\RMSD=6.800e-09\Dipole=1.4493358,1.41705
 74,-0.0545155\Quadrupole=0.4125487,-0.3472584,-0.0652903,-0.9853033,-0
 .6501887,0.001016\PG=C01 [X(C5H3N2)]\\@


 WE THE UNWILLING
 LED BY THE UNQUALIFIED
 HAVE BEEN DOING THE UNBELIEVABLE SO LONG WITH SO LITTLE
 THAT WE NOW ATTEMPT THE IMPOSSIBLE WITH NOTHING.

                                    -- ANONYMOUS
 Job cpu time:  0 days  0 hours 14 minutes 57.4 seconds.
 File lengths (MBytes):  RWF=     42 Int=      0 D2E=      0 Chk=      3 Scr=      1
 Normal termination of Gaussian 09 at Fri May 26 03:05:05 2023.
