 Entering Gaussian System, Link 0=g09
 Initial command:
 /local/g09-source/g09/l1.exe /scratch/1505212/TRAJ_40/Gau-40396.inp -scrdir=/scratch/1505212/TRAJ_40/
 Entering Link 1 = /local/g09-source/g09/l1.exe PID=     40398.
  
 Copyright (c) 1988,1990,1992,1993,1995,1998,2003,2009, Gaussian, Inc.
                  All Rights Reserved.
  
 This is part of the Gaussian(R) 09 program.  It is based on
 the Gaussian(R) 03 system (copyright 2003, Gaussian, Inc.),
 the Gaussian(R) 98 system (copyright 1998, Gaussian, Inc.),
 the Gaussian(R) 94 system (copyright 1995, Gaussian, Inc.),
 the Gaussian 92(TM) system (copyright 1992, Gaussian, Inc.),
 the Gaussian 90(TM) system (copyright 1990, Gaussian, Inc.),
 the Gaussian 88(TM) system (copyright 1988, Gaussian, Inc.),
 the Gaussian 86(TM) system (copyright 1986, Carnegie Mellon
 University), and the Gaussian 82(TM) system (copyright 1983,
 Carnegie Mellon University). Gaussian is a federally registered
 trademark of Gaussian, Inc.
  
 This software contains proprietary and confidential information,
 including trade secrets, belonging to Gaussian, Inc.
  
 This software is provided under written license and may be
 used, copied, transmitted, or stored only in accord with that
 written license.
  
 The following legend is applicable only to US Government
 contracts under FAR:
  
                    RESTRICTED RIGHTS LEGEND
  
 Use, reproduction and disclosure by the US Government is
 subject to restrictions as set forth in subparagraphs (a)
 and (c) of the Commercial Computer Software - Restricted
 Rights clause in FAR 52.227-19.
  
 Gaussian, Inc.
 340 Quinnipiac St., Bldg. 40, Wallingford CT 06492
  
  
 ---------------------------------------------------------------
 Warning -- This program may not be used in any manner that
 competes with the business of Gaussian, Inc. or will provide
 assistance to any competitor of Gaussian, Inc.  The licensee
 of this program is prohibited from giving any competitor of
 Gaussian, Inc. access to this program.  By using this program,
 the user acknowledges that Gaussian, Inc. is engaged in the
 business of creating and licensing software in the field of
 computational chemistry and represents and warrants to the
 licensee that it is not a competitor of Gaussian, Inc. and that
 it will not use this program in any manner prohibited above.
 ---------------------------------------------------------------
  

 Cite this work as:
 Gaussian 09, Revision A.02,
 M. J. Frisch, G. W. Trucks, H. B. Schlegel, G. E. Scuseria, 
 M. A. Robb, J. R. Cheeseman, G. Scalmani, V. Barone, B. Mennucci, 
 G. A. Petersson, H. Nakatsuji, M. Caricato, X. Li, H. P. Hratchian, 
 A. F. Izmaylov, J. Bloino, G. Zheng, J. L. Sonnenberg, M. Hada, 
 M. Ehara, K. Toyota, R. Fukuda, J. Hasegawa, M. Ishida, T. Nakajima, 
 Y. Honda, O. Kitao, H. Nakai, T. Vreven, J. A. Montgomery, Jr., 
 J. E. Peralta, F. Ogliaro, M. Bearpark, J. J. Heyd, E. Brothers, 
 K. N. Kudin, V. N. Staroverov, R. Kobayashi, J. Normand, 
 K. Raghavachari, A. Rendell, J. C. Burant, S. S. Iyengar, J. Tomasi, 
 M. Cossi, N. Rega, J. M. Millam, M. Klene, J. E. Knox, J. B. Cross, 
 V. Bakken, C. Adamo, J. Jaramillo, R. Gomperts, R. E. Stratmann, 
 O. Yazyev, A. J. Austin, R. Cammi, C. Pomelli, J. W. Ochterski, 
 R. L. Martin, K. Morokuma, V. G. Zakrzewski, G. A. Voth, 
 P. Salvador, J. J. Dannenberg, S. Dapprich, A. D. Daniels, 
 O. Farkas, J. B. Foresman, J. V. Ortiz, J. Cioslowski, 
 and D. J. Fox, Gaussian, Inc., Wallingford CT, 2009.
 
 ******************************************
 Gaussian 09:  EM64L-G09RevA.02 11-Jun-2009
                26-May-2023 
 ******************************************
 %Chk=neu.chk
 %Nproc=10
 Will use up to   10 processors via shared memory.
 %Mem=25000Mb
 ----------------------------------------------------------------------
 #p wB97XD/GEN 6D Iop(6/7=3) Iop(9/40=14) scf(maxcyc=200,conver=8) nosy
 m Guess(Read,TCheck) GFInput
 ----------------------------------------------------------------------
 1/38=1/1;
 2/12=2,15=1,17=6,18=5,40=1/2;
 3/5=7,8=2,11=2,16=1,24=10,25=1,30=1,74=-58/1,2,3;
 4/5=102/1;
 5/5=2,6=8,7=200/2;
 6/7=3,8=2,9=2,10=2,28=1/1;
 99/5=1,9=1/99;
 Leave Link    1 at Fri May 26 02:44:04 2023, MaxMem= 3276800000 cpu:       0.6
 (Enter /local/g09-source/g09/l101.exe)
 -------
 Comment
 -------
 Symbolic Z-matrix:
 Charge =  0 Multiplicity = 2
 N                     0.95192  -0.92824  -0.00245 
 C                    -0.24178  -0.11387   0.05725 
 C                     0.05961   1.26109  -0.00144 
 C                     1.35842   1.35937   0.06361 
 C                     1.94368  -0.01102  -0.05511 
 C                    -1.5719   -0.61829  -0.01932 
 N                    -2.67037  -1.02325  -0.01686 
 H                    -0.54813   2.24307   0.01014 
 H                     2.4196    1.96237   0.02187 
 H                     3.12924  -0.38467  -0.29959 
 
 NAtoms=     10 NQM=     10 NQMF=      0 NMic=      0 NMicF=      0 NTot=     10.
                    Isotopes and Nuclear Properties:
 (Nuclear quadrupole moments (NQMom) in fm**2, nuclear magnetic moments (NMagM)
  in nuclear magnetons)

  Atom         1           2           3           4           5           6           7           8           9          10
 IAtWgt=          14          12          12          12          12          12          14           1           1           1
 AtmWgt=  14.0030740  12.0000000  12.0000000  12.0000000  12.0000000  12.0000000  14.0030740   1.0078250   1.0078250   1.0078250
 NucSpn=           2           0           0           0           0           0           2           1           1           1
 AtZEff=   0.0000000   0.0000000   0.0000000   0.0000000   0.0000000   0.0000000   0.0000000   0.0000000   0.0000000   0.0000000
 NQMom=    2.0440000   0.0000000   0.0000000   0.0000000   0.0000000   0.0000000   2.0440000   0.0000000   0.0000000   0.0000000
 NMagM=    0.4037610   0.0000000   0.0000000   0.0000000   0.0000000   0.0000000   0.4037610   2.7928460   2.7928460   2.7928460
 Leave Link  101 at Fri May 26 02:44:05 2023, MaxMem= 3276800000 cpu:       1.0
 (Enter /local/g09-source/g09/l202.exe)
                          Input orientation:                          
 ---------------------------------------------------------------------
 Center     Atomic      Atomic             Coordinates (Angstroms)
 Number     Number       Type             X           Y           Z
 ---------------------------------------------------------------------
      1          7           0        0.951920   -0.928238   -0.002453
      2          6           0       -0.241784   -0.113870    0.057253
      3          6           0        0.059605    1.261091   -0.001439
      4          6           0        1.358420    1.359373    0.063605
      5          6           0        1.943684   -0.011023   -0.055110
      6          6           0       -1.571898   -0.618290   -0.019320
      7          7           0       -2.670372   -1.023247   -0.016861
      8          1           0       -0.548133    2.243069    0.010142
      9          1           0        2.419596    1.962365    0.021870
     10          1           0        3.129240   -0.384669   -0.299588
 ---------------------------------------------------------------------
                    Distance matrix (angstroms):
                    1          2          3          4          5
     1  N    0.000000
     2  C    1.446268   0.000000
     3  C    2.364189   1.408829   0.000000
     4  C    2.324387   2.175118   1.304151   0.000000
     5  C    1.351907   2.190770   2.273963   1.494862   0.000000
     6  C    2.542835   1.424607   2.488814   3.536212   3.567824
     7  N    3.623566   2.594320   3.559665   4.681295   4.723936
     8  H    3.508206   2.377232   1.154885   2.102075   3.360705
     9  H    3.241952   3.375641   2.462090   1.221244   2.031423
    10  H    2.263731   3.400657   3.495723   2.511852   1.266856
                    6          7          8          9         10
     6  C    0.000000
     7  N    1.170744   0.000000
     8  H    3.039135   3.895311   0.000000
     9  H    4.753262   5.901115   2.980998   0.000000
    10  H    4.715276   5.841508   4.530344   2.472954   0.000000
 Symmetry turned off by external request.
 Stoichiometry    C5H3N2(2)
 Framework group  C1[X(C5H3N2)]
 Deg. of freedom    24
 Full point group                 C1      NOp   1
 Rotational constants (GHZ):      8.6469306      2.0193622      1.6389784
 Leave Link  202 at Fri May 26 02:44:05 2023, MaxMem= 3276800000 cpu:       0.0
 (Enter /local/g09-source/g09/l301.exe)
 General basis read from cards:  (6D, 7F)
 Centers:   8  9 10
 S 3 1.0
     Exponent=  3.3865000000D+01 Coefficients=  2.5493800000D-02
     Exponent=  5.0947900000D+00 Coefficients=  1.9037300000D-01
     Exponent=  1.1587900000D+00 Coefficients=  8.5216100000D-01
 S 1 1.0
     Exponent=  3.2584000000D-01 Coefficients=  1.0000000000D+00
 S 1 1.0
     Exponent=  1.0274100000D-01 Coefficients=  1.0000000000D+00
 S 1 1.0
     Exponent=  3.6000000000D-02 Coefficients=  1.0000000000D+00
 P 1 1.0
     Exponent=  7.5000000000D-01 Coefficients=  1.0000000000D+00
 ****
 Centers:   2  3  4  5  6
 S 6 1.0
     Exponent=  4.5632400000D+03 Coefficients=  1.9666500000D-03
     Exponent=  6.8202400000D+02 Coefficients=  1.5230600000D-02
     Exponent=  1.5497300000D+02 Coefficients=  7.6126900000D-02
     Exponent=  4.4455300000D+01 Coefficients=  2.6080100000D-01
     Exponent=  1.3029000000D+01 Coefficients=  6.1646200000D-01
     Exponent=  1.8277300000D+00 Coefficients=  2.2100600000D-01
 S 3 1.0
     Exponent=  2.0964200000D+01 Coefficients=  1.1466000000D-01
     Exponent=  4.8033100000D+00 Coefficients=  9.1999900000D-01
     Exponent=  1.4593300000D+00 Coefficients= -3.0306800000D-03
 S 1 1.0
     Exponent=  4.8345600000D-01 Coefficients=  1.0000000000D+00
 S 1 1.0
     Exponent=  1.4558500000D-01 Coefficients=  1.0000000000D+00
 S 1 1.0
     Exponent=  4.3800000000D-02 Coefficients=  1.0000000000D+00
 P 3 1.0
     Exponent=  2.0964200000D+01 Coefficients=  4.0248700000D-02
     Exponent=  4.8033100000D+00 Coefficients=  2.3759400000D-01
     Exponent=  1.4593300000D+00 Coefficients=  8.1585400000D-01
 P 1 1.0
     Exponent=  4.8345600000D-01 Coefficients=  1.0000000000D+00
 P 1 1.0
     Exponent=  1.4558500000D-01 Coefficients=  1.0000000000D+00
 P 1 1.0
     Exponent=  4.3800000000D-02 Coefficients=  1.0000000000D+00
 D 1 1.0
     Exponent=  6.2600000000D-01 Coefficients=  1.0000000000D+00
 ****
 Centers:   1  7
 S 6 1.0
     Exponent=  6.2934800000D+03 Coefficients=  1.9697900000D-03
     Exponent=  9.4904400000D+02 Coefficients=  1.4961300000D-02
     Exponent=  2.1877600000D+02 Coefficients=  7.3500600000D-02
     Exponent=  6.3691600000D+01 Coefficients=  2.4893700000D-01
     Exponent=  1.8828200000D+01 Coefficients=  6.0246000000D-01
     Exponent=  2.7202300000D+00 Coefficients=  2.5620200000D-01
 S 3 1.0
     Exponent=  3.0633100000D+01 Coefficients=  1.1190600000D-01
     Exponent=  7.0261400000D+00 Coefficients=  9.2166600000D-01
     Exponent=  2.1120500000D+00 Coefficients= -2.5691900000D-03
 S 1 1.0
     Exponent=  6.8400900000D-01 Coefficients=  1.0000000000D+00
 S 1 1.0
     Exponent=  2.0087800000D-01 Coefficients=  1.0000000000D+00
 S 1 1.0
     Exponent=  6.3900000000D-02 Coefficients=  1.0000000000D+00
 S 1 1.0
     Exponent=  1.8257143000D-02 Coefficients=  1.0000000000D+00
 S 1 1.0
     Exponent=  5.2163270000D-03 Coefficients=  1.0000000000D+00
 S 1 1.0
     Exponent=  1.4903790000D-03 Coefficients=  1.0000000000D+00
 P 3 1.0
     Exponent=  3.0633100000D+01 Coefficients=  3.8311900000D-02
     Exponent=  7.0261400000D+00 Coefficients=  2.3740300000D-01
     Exponent=  2.1120500000D+00 Coefficients=  8.1759200000D-01
 P 1 1.0
     Exponent=  6.8400900000D-01 Coefficients=  1.0000000000D+00
 P 1 1.0
     Exponent=  2.0087800000D-01 Coefficients=  1.0000000000D+00
 P 1 1.0
     Exponent=  6.3900000000D-02 Coefficients=  1.0000000000D+00
 P 1 1.0
     Exponent=  1.8257143000D-02 Coefficients=  1.0000000000D+00
 P 1 1.0
     Exponent=  5.2163270000D-03 Coefficients=  1.0000000000D+00
 D 1 1.0
     Exponent=  9.1300000000D-01 Coefficients=  1.0000000000D+00
 ****
 Ernie: Thresh=  0.10000D-02 Tol=  0.10000D-05 Strict=F.
 AO basis set in the form of general basis input (Overlap normalization):
      1 0
 S   6 1.00       0.000000000000
      0.6293480000D+04  0.1969788147D-02
      0.9490440000D+03  0.1496128592D-01
      0.2187760000D+03  0.7350053084D-01
      0.6369160000D+02  0.2489367658D+00
      0.1882820000D+02  0.6024594331D+00
      0.2720230000D+01  0.2562017589D+00
 S   3 1.00       0.000000000000
      0.3063310000D+02  0.1119060795D+00
      0.7026140000D+01  0.9216666549D+00
      0.2112050000D+01 -0.2569191826D-02
 S   1 1.00       0.000000000000
      0.6840090000D+00  0.1000000000D+01
 S   1 1.00       0.000000000000
      0.2008780000D+00  0.1000000000D+01
 S   1 1.00       0.000000000000
      0.6390000000D-01  0.1000000000D+01
 S   1 1.00       0.000000000000
      0.1825714300D-01  0.1000000000D+01
 S   1 1.00       0.000000000000
      0.5216327000D-02  0.1000000000D+01
 S   1 1.00       0.000000000000
      0.1490379000D-02  0.1000000000D+01
 P   3 1.00       0.000000000000
      0.3063310000D+02  0.3831191864D-01
      0.7026140000D+01  0.2374031155D+00
      0.2112050000D+01  0.8175923978D+00
 P   1 1.00       0.000000000000
      0.6840090000D+00  0.1000000000D+01
 P   1 1.00       0.000000000000
      0.2008780000D+00  0.1000000000D+01
 P   1 1.00       0.000000000000
      0.6390000000D-01  0.1000000000D+01
 P   1 1.00       0.000000000000
      0.1825714300D-01  0.1000000000D+01
 P   1 1.00       0.000000000000
      0.5216327000D-02  0.1000000000D+01
 D   1 1.00       0.000000000000
      0.9130000000D+00  0.1000000000D+01
 ****
      2 0
 S   6 1.00       0.000000000000
      0.4563240000D+04  0.1966650249D-02
      0.6820240000D+03  0.1523060193D-01
      0.1549730000D+03  0.7612690966D-01
      0.4445530000D+02  0.2608010331D+00
      0.1302900000D+02  0.6164620782D+00
      0.1827730000D+01  0.2210060280D+00
 S   3 1.00       0.000000000000
      0.2096420000D+02  0.1146600807D+00
      0.4803310000D+01  0.9199996477D+00
      0.1459330000D+01 -0.3030682134D-02
 S   1 1.00       0.000000000000
      0.4834560000D+00  0.1000000000D+01
 S   1 1.00       0.000000000000
      0.1455850000D+00  0.1000000000D+01
 S   1 1.00       0.000000000000
      0.4380000000D-01  0.1000000000D+01
 P   3 1.00       0.000000000000
      0.2096420000D+02  0.4024869267D-01
      0.4803310000D+01  0.2375939567D+00
      0.1459330000D+01  0.8158538515D+00
 P   1 1.00       0.000000000000
      0.4834560000D+00  0.1000000000D+01
 P   1 1.00       0.000000000000
      0.1455850000D+00  0.1000000000D+01
 P   1 1.00       0.000000000000
      0.4380000000D-01  0.1000000000D+01
 D   1 1.00       0.000000000000
      0.6260000000D+00  0.1000000000D+01
 ****
      3 0
 S   6 1.00       0.000000000000
      0.4563240000D+04  0.1966650249D-02
      0.6820240000D+03  0.1523060193D-01
      0.1549730000D+03  0.7612690966D-01
      0.4445530000D+02  0.2608010331D+00
      0.1302900000D+02  0.6164620782D+00
      0.1827730000D+01  0.2210060280D+00
 S   3 1.00       0.000000000000
      0.2096420000D+02  0.1146600807D+00
      0.4803310000D+01  0.9199996477D+00
      0.1459330000D+01 -0.3030682134D-02
 S   1 1.00       0.000000000000
      0.4834560000D+00  0.1000000000D+01
 S   1 1.00       0.000000000000
      0.1455850000D+00  0.1000000000D+01
 S   1 1.00       0.000000000000
      0.4380000000D-01  0.1000000000D+01
 P   3 1.00       0.000000000000
      0.2096420000D+02  0.4024869267D-01
      0.4803310000D+01  0.2375939567D+00
      0.1459330000D+01  0.8158538515D+00
 P   1 1.00       0.000000000000
      0.4834560000D+00  0.1000000000D+01
 P   1 1.00       0.000000000000
      0.1455850000D+00  0.1000000000D+01
 P   1 1.00       0.000000000000
      0.4380000000D-01  0.1000000000D+01
 D   1 1.00       0.000000000000
      0.6260000000D+00  0.1000000000D+01
 ****
      4 0
 S   6 1.00       0.000000000000
      0.4563240000D+04  0.1966650249D-02
      0.6820240000D+03  0.1523060193D-01
      0.1549730000D+03  0.7612690966D-01
      0.4445530000D+02  0.2608010331D+00
      0.1302900000D+02  0.6164620782D+00
      0.1827730000D+01  0.2210060280D+00
 S   3 1.00       0.000000000000
      0.2096420000D+02  0.1146600807D+00
      0.4803310000D+01  0.9199996477D+00
      0.1459330000D+01 -0.3030682134D-02
 S   1 1.00       0.000000000000
      0.4834560000D+00  0.1000000000D+01
 S   1 1.00       0.000000000000
      0.1455850000D+00  0.1000000000D+01
 S   1 1.00       0.000000000000
      0.4380000000D-01  0.1000000000D+01
 P   3 1.00       0.000000000000
      0.2096420000D+02  0.4024869267D-01
      0.4803310000D+01  0.2375939567D+00
      0.1459330000D+01  0.8158538515D+00
 P   1 1.00       0.000000000000
      0.4834560000D+00  0.1000000000D+01
 P   1 1.00       0.000000000000
      0.1455850000D+00  0.1000000000D+01
 P   1 1.00       0.000000000000
      0.4380000000D-01  0.1000000000D+01
 D   1 1.00       0.000000000000
      0.6260000000D+00  0.1000000000D+01
 ****
      5 0
 S   6 1.00       0.000000000000
      0.4563240000D+04  0.1966650249D-02
      0.6820240000D+03  0.1523060193D-01
      0.1549730000D+03  0.7612690966D-01
      0.4445530000D+02  0.2608010331D+00
      0.1302900000D+02  0.6164620782D+00
      0.1827730000D+01  0.2210060280D+00
 S   3 1.00       0.000000000000
      0.2096420000D+02  0.1146600807D+00
      0.4803310000D+01  0.9199996477D+00
      0.1459330000D+01 -0.3030682134D-02
 S   1 1.00       0.000000000000
      0.4834560000D+00  0.1000000000D+01
 S   1 1.00       0.000000000000
      0.1455850000D+00  0.1000000000D+01
 S   1 1.00       0.000000000000
      0.4380000000D-01  0.1000000000D+01
 P   3 1.00       0.000000000000
      0.2096420000D+02  0.4024869267D-01
      0.4803310000D+01  0.2375939567D+00
      0.1459330000D+01  0.8158538515D+00
 P   1 1.00       0.000000000000
      0.4834560000D+00  0.1000000000D+01
 P   1 1.00       0.000000000000
      0.1455850000D+00  0.1000000000D+01
 P   1 1.00       0.000000000000
      0.4380000000D-01  0.1000000000D+01
 D   1 1.00       0.000000000000
      0.6260000000D+00  0.1000000000D+01
 ****
      6 0
 S   6 1.00       0.000000000000
      0.4563240000D+04  0.1966650249D-02
      0.6820240000D+03  0.1523060193D-01
      0.1549730000D+03  0.7612690966D-01
      0.4445530000D+02  0.2608010331D+00
      0.1302900000D+02  0.6164620782D+00
      0.1827730000D+01  0.2210060280D+00
 S   3 1.00       0.000000000000
      0.2096420000D+02  0.1146600807D+00
      0.4803310000D+01  0.9199996477D+00
      0.1459330000D+01 -0.3030682134D-02
 S   1 1.00       0.000000000000
      0.4834560000D+00  0.1000000000D+01
 S   1 1.00       0.000000000000
      0.1455850000D+00  0.1000000000D+01
 S   1 1.00       0.000000000000
      0.4380000000D-01  0.1000000000D+01
 P   3 1.00       0.000000000000
      0.2096420000D+02  0.4024869267D-01
      0.4803310000D+01  0.2375939567D+00
      0.1459330000D+01  0.8158538515D+00
 P   1 1.00       0.000000000000
      0.4834560000D+00  0.1000000000D+01
 P   1 1.00       0.000000000000
      0.1455850000D+00  0.1000000000D+01
 P   1 1.00       0.000000000000
      0.4380000000D-01  0.1000000000D+01
 D   1 1.00       0.000000000000
      0.6260000000D+00  0.1000000000D+01
 ****
      7 0
 S   6 1.00       0.000000000000
      0.6293480000D+04  0.1969788147D-02
      0.9490440000D+03  0.1496128592D-01
      0.2187760000D+03  0.7350053084D-01
      0.6369160000D+02  0.2489367658D+00
      0.1882820000D+02  0.6024594331D+00
      0.2720230000D+01  0.2562017589D+00
 S   3 1.00       0.000000000000
      0.3063310000D+02  0.1119060795D+00
      0.7026140000D+01  0.9216666549D+00
      0.2112050000D+01 -0.2569191826D-02
 S   1 1.00       0.000000000000
      0.6840090000D+00  0.1000000000D+01
 S   1 1.00       0.000000000000
      0.2008780000D+00  0.1000000000D+01
 S   1 1.00       0.000000000000
      0.6390000000D-01  0.1000000000D+01
 S   1 1.00       0.000000000000
      0.1825714300D-01  0.1000000000D+01
 S   1 1.00       0.000000000000
      0.5216327000D-02  0.1000000000D+01
 S   1 1.00       0.000000000000
      0.1490379000D-02  0.1000000000D+01
 P   3 1.00       0.000000000000
      0.3063310000D+02  0.3831191864D-01
      0.7026140000D+01  0.2374031155D+00
      0.2112050000D+01  0.8175923978D+00
 P   1 1.00       0.000000000000
      0.6840090000D+00  0.1000000000D+01
 P   1 1.00       0.000000000000
      0.2008780000D+00  0.1000000000D+01
 P   1 1.00       0.000000000000
      0.6390000000D-01  0.1000000000D+01
 P   1 1.00       0.000000000000
      0.1825714300D-01  0.1000000000D+01
 P   1 1.00       0.000000000000
      0.5216327000D-02  0.1000000000D+01
 D   1 1.00       0.000000000000
      0.9130000000D+00  0.1000000000D+01
 ****
      8 0
 S   3 1.00       0.000000000000
      0.3386500000D+02  0.2549381454D-01
      0.5094790000D+01  0.1903731086D+00
      0.1158790000D+01  0.8521614860D+00
 S   1 1.00       0.000000000000
      0.3258400000D+00  0.1000000000D+01
 S   1 1.00       0.000000000000
      0.1027410000D+00  0.1000000000D+01
 S   1 1.00       0.000000000000
      0.3600000000D-01  0.1000000000D+01
 P   1 1.00       0.000000000000
      0.7500000000D+00  0.1000000000D+01
 ****
      9 0
 S   3 1.00       0.000000000000
      0.3386500000D+02  0.2549381454D-01
      0.5094790000D+01  0.1903731086D+00
      0.1158790000D+01  0.8521614860D+00
 S   1 1.00       0.000000000000
      0.3258400000D+00  0.1000000000D+01
 S   1 1.00       0.000000000000
      0.1027410000D+00  0.1000000000D+01
 S   1 1.00       0.000000000000
      0.3600000000D-01  0.1000000000D+01
 P   1 1.00       0.000000000000
      0.7500000000D+00  0.1000000000D+01
 ****
     10 0
 S   3 1.00       0.000000000000
      0.3386500000D+02  0.2549381454D-01
      0.5094790000D+01  0.1903731086D+00
      0.1158790000D+01  0.8521614860D+00
 S   1 1.00       0.000000000000
      0.3258400000D+00  0.1000000000D+01
 S   1 1.00       0.000000000000
      0.1027410000D+00  0.1000000000D+01
 S   1 1.00       0.000000000000
      0.3600000000D-01  0.1000000000D+01
 P   1 1.00       0.000000000000
      0.7500000000D+00  0.1000000000D+01
 ****

 Integral buffers will be    131072 words long.
 Raffenetti 2 integral format.
 Two-electron integral symmetry is turned off.
   200 basis functions,   297 primitive gaussians,   200 cartesian basis functions
    24 alpha electrons       23 beta electrons
       nuclear repulsion energy       235.8597280759 Hartrees.
 IExCor= 4639 DFT=T Ex+Corr=wB97XD ExCW=0 ScaHFX=  1.000000
 ScaDFX=  1.000000  1.000000  1.000000  1.000000 ScalE2=  1.000000  1.000000
 IRadAn=      0 IRanWt=     -1 IRanGd=            0 ICorTp=0
  HFx wShort=  0.000000 wLong=  0.200000 cFull=  0.222036 cShort=  0.000000 cLong=  0.777964
  DFx wShort=  0.000000 wLong=  0.200000 cFull=  0.000000 cShort=  0.000000 cLong=  1.000000
 NAtoms=   10 NActive=   10 NUniq=   10 SFac= 7.50D-01 NAtFMM=   80 NAOKFM=F Big=F
 R6Disp: Dispersion energy =        -0.0030555855 Hartrees.
 Nuclear repulsion after empirical dispersion term =      235.8566724904 Hartrees.
 Leave Link  301 at Fri May 26 02:44:05 2023, MaxMem= 3276800000 cpu:       0.6
 (Enter /local/g09-source/g09/l302.exe)
 NPDir=0 NMtPBC=     1 NCelOv=     1 NCel=       1 NClECP=     1 NCelD=      1
         NCelK=      1 NCelE2=     1 NClLst=     1 CellRange=     0.0.
 One-electron integrals computed using PRISM.
 NBasis=   200 RedAO= T  NBF=   200
 NBsUse=   200 1.00D-06 NBFU=   200
 Precomputing XC quadrature grid using
 IXCGrd= 2 IRadAn=           0 IRanWt=          -1 IRanGd=           0 AccXCQ= 1.00D-10.
 NRdTot=     695 NPtTot=       89148 NUsed=       94156 NTot=       94188
 NSgBfM=   200   200   200   200   200 NAtAll=    10    10.
 Leave Link  302 at Fri May 26 02:44:05 2023, MaxMem= 3276800000 cpu:       2.5
 (Enter /local/g09-source/g09/l303.exe)
 DipDrv:  MaxL=1.
 Leave Link  303 at Fri May 26 02:44:05 2023, MaxMem= 3276800000 cpu:       0.5
 (Enter /local/g09-source/g09/l401.exe)
 Initial guess read from the checkpoint file:  neu.chk
 B after Tr=     0.000339   -0.000063   -0.000169
         Rot=    1.000000    0.000000   -0.000065   -0.000005 Ang=   0.01 deg.
 Guess basis will be translated and rotated to current coordinates.
 Initial guess <Sx>= 0.0000 <Sy>= 0.0000 <Sz>= 0.5000 <S**2>= 0.7832 S= 0.5165
 Leave Link  401 at Fri May 26 02:44:05 2023, MaxMem= 3276800000 cpu:       3.2
 (Enter /local/g09-source/g09/l502.exe)
 UHF open shell SCF:
 Requested convergence on RMS density matrix=1.00D-08 within 200 cycles.
 Requested convergence on MAX density matrix=1.00D-06.
 Requested convergence on             energy=1.00D-06.
 No special actions if energy rises.
 Using DIIS extrapolation, IDIIS=  1040.
 Two-electron integral symmetry not used.
        94053 words used for storage of precomputed grid.
 IEnd=      259395 IEndB=      259395 NGot=  3276800000 MDV=  3276621206
 LenX=  3276621206 LenY=  3276580765
 Fock matrices will be formed incrementally for  20 cycles.

 Cycle   1  Pass 1  IDiag  1:
 FoFJK:  IHMeth= 1 ICntrl=     0 DoSepK=T KAlg= 1 I1Cent= 0 FoldK=F
 FoFCou: FMM=F IPFlag=           0 FMFlag=      100000 FMFlg1=           0
         NFxFlg=           0 DoJE=T BraDBF=F KetDBF=F FulRan=T
         Omega=  0.000000  0.000000  1.000000  0.000000  0.000000 ICntrl=     500 IOpCl=  0
         NMat0=    1 NMatS0=    1 NMatT0=    0 NMatD0=    1 NMtDS0=    0 NMtDT0=    0
         I1Cent=           0 NGrid=           0.
 Symmetry not used in FoFCou.
 E= -301.647610174434    
 DIIS: error= 3.75D-04 at cycle   1 NSaved=   1.
 NSaved= 1 IEnMin= 1 EnMin= -301.647610174434     IErMin= 1 ErrMin= 3.75D-04
 ErrMax= 3.75D-04 EMaxC= 1.00D-01 BMatC= 2.36D-04 BMatP= 2.36D-04
 IDIUse=3 WtCom= 9.96D-01 WtEn= 3.75D-03
 Coeff-Com:  0.100D+01
 Coeff-En:   0.100D+01
 Coeff:      0.100D+01
 Gap=     0.352 Goal=   None    Shift=    0.000
 Gap=     0.263 Goal=   None    Shift=    0.000
 RMSDP=1.09D-03 MaxDP=9.56D-02              OVMax= 2.07D-03

 Cycle   2  Pass 1  IDiag  1:
 RMSU=  5.33D-04    CP:  1.01D+00
 FoFJK:  IHMeth= 1 ICntrl=     0 DoSepK=T KAlg= 1 I1Cent= 0 FoldK=F
 E= -301.647681908161     Delta-E=       -0.000071733727 Rises=F Damp=F
 DIIS: error= 2.56D-04 at cycle   2 NSaved=   2.
 NSaved= 2 IEnMin= 2 EnMin= -301.647681908161     IErMin= 2 ErrMin= 2.56D-04
 ErrMax= 2.56D-04 EMaxC= 1.00D-01 BMatC= 2.25D-05 BMatP= 2.36D-04
 IDIUse=3 WtCom= 9.97D-01 WtEn= 2.56D-03
 Coeff-Com:  0.545D-01 0.946D+00
 Coeff-En:   0.000D+00 0.100D+01
 Coeff:      0.543D-01 0.946D+00
 Gap=     0.352 Goal=   None    Shift=    0.000
 Gap=     0.261 Goal=   None    Shift=    0.000
 RMSDP=1.77D-04 MaxDP=1.56D-02 DE=-7.17D-05 OVMax= 1.59D-03

 Cycle   3  Pass 1  IDiag  1:
 RMSU=  7.27D-05    CP:  1.01D+00  1.11D+00
 FoFJK:  IHMeth= 1 ICntrl=     0 DoSepK=T KAlg= 1 I1Cent= 0 FoldK=F
 E= -301.647683948648     Delta-E=       -0.000002040486 Rises=F Damp=F
 DIIS: error= 2.60D-04 at cycle   3 NSaved=   3.
 NSaved= 3 IEnMin= 3 EnMin= -301.647683948648     IErMin= 2 ErrMin= 2.56D-04
 ErrMax= 2.60D-04 EMaxC= 1.00D-01 BMatC= 2.44D-05 BMatP= 2.25D-05
 IDIUse=3 WtCom= 9.97D-01 WtEn= 2.60D-03
 Coeff-Com: -0.588D-01 0.533D+00 0.525D+00
 Coeff-En:   0.000D+00 0.394D+00 0.606D+00
 Coeff:     -0.586D-01 0.533D+00 0.526D+00
 Gap=     0.352 Goal=   None    Shift=    0.000
 Gap=     0.261 Goal=   None    Shift=    0.000
 RMSDP=5.30D-05 MaxDP=2.61D-03 DE=-2.04D-06 OVMax= 6.87D-04

 Cycle   4  Pass 1  IDiag  1:
 RMSU=  3.22D-05    CP:  1.01D+00  1.14D+00  7.72D-01
 FoFJK:  IHMeth= 1 ICntrl=     0 DoSepK=T KAlg= 1 I1Cent= 0 FoldK=F
 E= -301.647689698881     Delta-E=       -0.000005750234 Rises=F Damp=F
 DIIS: error= 4.22D-05 at cycle   4 NSaved=   4.
 NSaved= 4 IEnMin= 4 EnMin= -301.647689698881     IErMin= 4 ErrMin= 4.22D-05
 ErrMax= 4.22D-05 EMaxC= 1.00D-01 BMatC= 9.71D-07 BMatP= 2.25D-05
 IDIUse=1 WtCom= 1.00D+00 WtEn= 0.00D+00
 Coeff-Com: -0.234D-01 0.116D+00 0.192D+00 0.716D+00
 Coeff:     -0.234D-01 0.116D+00 0.192D+00 0.716D+00
 Gap=     0.352 Goal=   None    Shift=    0.000
 Gap=     0.261 Goal=   None    Shift=    0.000
 RMSDP=1.90D-05 MaxDP=1.43D-03 DE=-5.75D-06 OVMax= 2.76D-04

 Cycle   5  Pass 1  IDiag  1:
 RMSU=  6.97D-06    CP:  1.01D+00  1.14D+00  8.26D-01  1.18D+00
 FoFJK:  IHMeth= 1 ICntrl=     0 DoSepK=T KAlg= 1 I1Cent= 0 FoldK=F
 E= -301.647689984425     Delta-E=       -0.000000285544 Rises=F Damp=F
 DIIS: error= 3.73D-05 at cycle   5 NSaved=   5.
 NSaved= 5 IEnMin= 5 EnMin= -301.647689984425     IErMin= 5 ErrMin= 3.73D-05
 ErrMax= 3.73D-05 EMaxC= 1.00D-01 BMatC= 4.31D-07 BMatP= 9.71D-07
 IDIUse=1 WtCom= 1.00D+00 WtEn= 0.00D+00
 Coeff-Com: -0.268D-03-0.614D-01-0.103D-01 0.431D+00 0.641D+00
 Coeff:     -0.268D-03-0.614D-01-0.103D-01 0.431D+00 0.641D+00
 Gap=     0.352 Goal=   None    Shift=    0.000
 Gap=     0.261 Goal=   None    Shift=    0.000
 RMSDP=8.51D-06 MaxDP=5.67D-04 DE=-2.86D-07 OVMax= 2.53D-04

 Cycle   6  Pass 1  IDiag  1:
 RMSU=  2.91D-06    CP:  1.01D+00  1.14D+00  8.29D-01  1.33D+00  1.15D+00
 FoFJK:  IHMeth= 1 ICntrl=     0 DoSepK=T KAlg= 1 I1Cent= 0 FoldK=F
 E= -301.647690159357     Delta-E=       -0.000000174932 Rises=F Damp=F
 DIIS: error= 1.87D-05 at cycle   6 NSaved=   6.
 NSaved= 6 IEnMin= 6 EnMin= -301.647690159357     IErMin= 6 ErrMin= 1.87D-05
 ErrMax= 1.87D-05 EMaxC= 1.00D-01 BMatC= 4.84D-08 BMatP= 4.31D-07
 IDIUse=1 WtCom= 1.00D+00 WtEn= 0.00D+00
 Coeff-Com:  0.360D-02-0.368D-01-0.327D-01 0.168D-01 0.186D+00 0.863D+00
 Coeff:      0.360D-02-0.368D-01-0.327D-01 0.168D-01 0.186D+00 0.863D+00
 Gap=     0.352 Goal=   None    Shift=    0.000
 Gap=     0.261 Goal=   None    Shift=    0.000
 RMSDP=4.76D-06 MaxDP=2.72D-04 DE=-1.75D-07 OVMax= 2.40D-04

 Cycle   7  Pass 1  IDiag  1:
 RMSU=  1.93D-06    CP:  1.01D+00  1.14D+00  8.23D-01  1.40D+00  1.24D+00
                    CP:  1.29D+00
 FoFJK:  IHMeth= 1 ICntrl=     0 DoSepK=T KAlg= 1 I1Cent= 0 FoldK=F
 E= -301.647690221067     Delta-E=       -0.000000061710 Rises=F Damp=F
 DIIS: error= 1.50D-05 at cycle   7 NSaved=   7.
 NSaved= 7 IEnMin= 7 EnMin= -301.647690221067     IErMin= 7 ErrMin= 1.50D-05
 ErrMax= 1.50D-05 EMaxC= 1.00D-01 BMatC= 2.42D-08 BMatP= 4.84D-08
 IDIUse=1 WtCom= 1.00D+00 WtEn= 0.00D+00
 Coeff-Com:  0.170D-02 0.399D-02-0.120D-01-0.139D+00-0.120D+00 0.374D+00
 Coeff-Com:  0.891D+00
 Coeff:      0.170D-02 0.399D-02-0.120D-01-0.139D+00-0.120D+00 0.374D+00
 Coeff:      0.891D+00
 Gap=     0.352 Goal=   None    Shift=    0.000
 Gap=     0.261 Goal=   None    Shift=    0.000
 RMSDP=3.85D-06 MaxDP=2.01D-04 DE=-6.17D-08 OVMax= 2.38D-04

 Cycle   8  Pass 1  IDiag  1:
 RMSU=  1.20D-06    CP:  1.01D+00  1.14D+00  8.10D-01  1.45D+00  1.37D+00
                    CP:  1.66D+00  1.52D+00
 FoFJK:  IHMeth= 1 ICntrl=     0 DoSepK=T KAlg= 1 I1Cent= 0 FoldK=F
 E= -301.647690263227     Delta-E=       -0.000000042160 Rises=F Damp=F
 DIIS: error= 1.13D-05 at cycle   8 NSaved=   8.
 NSaved= 8 IEnMin= 8 EnMin= -301.647690263227     IErMin= 8 ErrMin= 1.13D-05
 ErrMax= 1.13D-05 EMaxC= 1.00D-01 BMatC= 9.49D-09 BMatP= 2.42D-08
 IDIUse=1 WtCom= 1.00D+00 WtEn= 0.00D+00
 Coeff-Com: -0.151D-02 0.207D-01 0.131D-01-0.409D-01-0.104D+00-0.398D+00
 Coeff-Com:  0.171D+00 0.134D+01
 Coeff:     -0.151D-02 0.207D-01 0.131D-01-0.409D-01-0.104D+00-0.398D+00
 Coeff:      0.171D+00 0.134D+01
 Gap=     0.352 Goal=   None    Shift=    0.000
 Gap=     0.261 Goal=   None    Shift=    0.000
 RMSDP=4.07D-06 MaxDP=3.43D-04 DE=-4.22D-08 OVMax= 3.13D-04

 Cycle   9  Pass 1  IDiag  1:
 RMSU=  7.61D-07    CP:  1.01D+00  1.14D+00  7.96D-01  1.49D+00  1.41D+00
                    CP:  1.93D+00  2.46D+00  1.84D+00
 FoFJK:  IHMeth= 1 ICntrl=     0 DoSepK=T KAlg= 1 I1Cent= 0 FoldK=F
 E= -301.647690294430     Delta-E=       -0.000000031204 Rises=F Damp=F
 DIIS: error= 6.48D-06 at cycle   9 NSaved=   9.
 NSaved= 9 IEnMin= 9 EnMin= -301.647690294430     IErMin= 9 ErrMin= 6.48D-06
 ErrMax= 6.48D-06 EMaxC= 1.00D-01 BMatC= 3.66D-09 BMatP= 9.49D-09
 IDIUse=1 WtCom= 1.00D+00 WtEn= 0.00D+00
 Coeff-Com: -0.110D-02 0.516D-02 0.821D-02 0.390D-01 0.168D-01-0.280D+00
 Coeff-Com: -0.281D+00 0.516D+00 0.977D+00
 Coeff:     -0.110D-02 0.516D-02 0.821D-02 0.390D-01 0.168D-01-0.280D+00
 Coeff:     -0.281D+00 0.516D+00 0.977D+00
 Gap=     0.352 Goal=   None    Shift=    0.000
 Gap=     0.261 Goal=   None    Shift=    0.000
 RMSDP=2.04D-06 MaxDP=1.42D-04 DE=-3.12D-08 OVMax= 1.80D-04

 Cycle  10  Pass 1  IDiag  1:
 RMSU=  4.07D-07    CP:  1.01D+00  1.14D+00  7.91D-01  1.50D+00  1.40D+00
                    CP:  2.02D+00  2.90D+00  2.55D+00  1.48D+00
 FoFJK:  IHMeth= 1 ICntrl=     0 DoSepK=T KAlg= 1 I1Cent= 0 FoldK=F
 E= -301.647690304079     Delta-E=       -0.000000009649 Rises=F Damp=F
 DIIS: error= 3.95D-06 at cycle  10 NSaved=  10.
 NSaved=10 IEnMin=10 EnMin= -301.647690304079     IErMin=10 ErrMin= 3.95D-06
 ErrMax= 3.95D-06 EMaxC= 1.00D-01 BMatC= 1.01D-09 BMatP= 3.66D-09
 IDIUse=1 WtCom= 1.00D+00 WtEn= 0.00D+00
 Coeff-Com:  0.430D-03-0.723D-02-0.350D-02 0.192D-01 0.407D-01 0.118D+00
 Coeff-Com: -0.113D+00-0.404D+00 0.324D-01 0.132D+01
 Coeff:      0.430D-03-0.723D-02-0.350D-02 0.192D-01 0.407D-01 0.118D+00
 Coeff:     -0.113D+00-0.404D+00 0.324D-01 0.132D+01
 Gap=     0.352 Goal=   None    Shift=    0.000
 Gap=     0.261 Goal=   None    Shift=    0.000
 RMSDP=1.21D-06 MaxDP=1.19D-04 DE=-9.65D-09 OVMax= 1.32D-04

 Cycle  11  Pass 1  IDiag  1:
 RMSU=  3.06D-07    CP:  1.01D+00  1.14D+00  7.93D-01  1.51D+00  1.39D+00
                    CP:  2.03D+00  3.00D+00  2.95D+00  1.95D+00  1.64D+00
 FoFJK:  IHMeth= 1 ICntrl=     0 DoSepK=T KAlg= 1 I1Cent= 0 FoldK=F
 E= -301.647690307930     Delta-E=       -0.000000003851 Rises=F Damp=F
 DIIS: error= 2.01D-06 at cycle  11 NSaved=  11.
 NSaved=11 IEnMin=11 EnMin= -301.647690307930     IErMin=11 ErrMin= 2.01D-06
 ErrMax= 2.01D-06 EMaxC= 1.00D-01 BMatC= 3.65D-10 BMatP= 1.01D-09
 IDIUse=1 WtCom= 1.00D+00 WtEn= 0.00D+00
 Coeff-Com:  0.341D-03-0.171D-02-0.255D-02-0.116D-01-0.516D-02 0.937D-01
 Coeff-Com:  0.753D-01-0.154D+00-0.324D+00 0.936D-01 0.124D+01
 Coeff:      0.341D-03-0.171D-02-0.255D-02-0.116D-01-0.516D-02 0.937D-01
 Coeff:      0.753D-01-0.154D+00-0.324D+00 0.936D-01 0.124D+01
 Gap=     0.352 Goal=   None    Shift=    0.000
 Gap=     0.261 Goal=   None    Shift=    0.000
 RMSDP=6.15D-07 MaxDP=5.09D-05 DE=-3.85D-09 OVMax= 6.40D-05

 Cycle  12  Pass 1  IDiag  1:
 RMSU=  1.85D-07    CP:  1.01D+00  1.14D+00  7.95D-01  1.51D+00  1.38D+00
                    CP:  2.02D+00  3.00D+00  3.00D+00  2.15D+00  1.97D+00
                    CP:  1.72D+00
 FoFJK:  IHMeth= 1 ICntrl=     0 DoSepK=T KAlg= 1 I1Cent= 0 FoldK=F
 E= -301.647690309103     Delta-E=       -0.000000001173 Rises=F Damp=F
 DIIS: error= 1.19D-06 at cycle  12 NSaved=  12.
 NSaved=12 IEnMin=12 EnMin= -301.647690309103     IErMin=12 ErrMin= 1.19D-06
 ErrMax= 1.19D-06 EMaxC= 1.00D-01 BMatC= 1.24D-10 BMatP= 3.65D-10
 IDIUse=1 WtCom= 1.00D+00 WtEn= 0.00D+00
 Coeff-Com: -0.199D-03 0.317D-02 0.141D-02-0.748D-02-0.170D-01-0.505D-01
 Coeff-Com:  0.371D-01 0.188D+00-0.125D-01-0.514D+00-0.860D-01 0.146D+01
 Coeff:     -0.199D-03 0.317D-02 0.141D-02-0.748D-02-0.170D-01-0.505D-01
 Coeff:      0.371D-01 0.188D+00-0.125D-01-0.514D+00-0.860D-01 0.146D+01
 Gap=     0.352 Goal=   None    Shift=    0.000
 Gap=     0.261 Goal=   None    Shift=    0.000
 RMSDP=4.81D-07 MaxDP=3.30D-05 DE=-1.17D-09 OVMax= 4.04D-05

 Cycle  13  Pass 1  IDiag  1:
 RMSU=  1.71D-07    CP:  1.01D+00  1.14D+00  7.95D-01  1.51D+00  1.39D+00
                    CP:  2.02D+00  3.00D+00  3.00D+00  2.09D+00  2.03D+00
                    CP:  2.30D+00  2.16D+00
 FoFJK:  IHMeth= 1 ICntrl=     0 DoSepK=T KAlg= 1 I1Cent= 0 FoldK=F
 E= -301.647690309583     Delta-E=       -0.000000000480 Rises=F Damp=F
 DIIS: error= 5.42D-07 at cycle  13 NSaved=  13.
 NSaved=13 IEnMin=13 EnMin= -301.647690309583     IErMin=13 ErrMin= 5.42D-07
 ErrMax= 5.42D-07 EMaxC= 1.00D-01 BMatC= 4.08D-11 BMatP= 1.24D-10
 IDIUse=1 WtCom= 1.00D+00 WtEn= 0.00D+00
 Coeff-Com: -0.126D-03 0.958D-03 0.930D-03 0.183D-02-0.111D-02-0.342D-01
 Coeff-Com: -0.171D-01 0.707D-01 0.852D-01-0.100D+00-0.373D+00 0.225D+00
 Coeff-Com:  0.114D+01
 Coeff:     -0.126D-03 0.958D-03 0.930D-03 0.183D-02-0.111D-02-0.342D-01
 Coeff:     -0.171D-01 0.707D-01 0.852D-01-0.100D+00-0.373D+00 0.225D+00
 Coeff:      0.114D+01
 Gap=     0.352 Goal=   None    Shift=    0.000
 Gap=     0.261 Goal=   None    Shift=    0.000
 RMSDP=2.66D-07 MaxDP=1.88D-05 DE=-4.80D-10 OVMax= 2.19D-05

 Cycle  14  Pass 1  IDiag  1:
 RMSU=  6.70D-08    CP:  1.01D+00  1.14D+00  7.95D-01  1.51D+00  1.39D+00
                    CP:  2.01D+00  3.00D+00  3.00D+00  2.05D+00  2.01D+00
                    CP:  2.63D+00  2.74D+00  1.51D+00
 FoFJK:  IHMeth= 1 ICntrl=     0 DoSepK=T KAlg= 1 I1Cent= 0 FoldK=F
 E= -301.647690309710     Delta-E=       -0.000000000127 Rises=F Damp=F
 DIIS: error= 2.97D-07 at cycle  14 NSaved=  14.
 NSaved=14 IEnMin=14 EnMin= -301.647690309710     IErMin=14 ErrMin= 2.97D-07
 ErrMax= 2.97D-07 EMaxC= 1.00D-01 BMatC= 1.21D-11 BMatP= 4.08D-11
 IDIUse=1 WtCom= 1.00D+00 WtEn= 0.00D+00
 Coeff-Com:  0.344D-04-0.901D-03-0.212D-03 0.338D-02 0.620D-02 0.968D-02
 Coeff-Com: -0.185D-01-0.499D-01 0.326D-01 0.170D+00-0.830D-01-0.487D+00
 Coeff-Com:  0.278D+00 0.114D+01
 Coeff:      0.344D-04-0.901D-03-0.212D-03 0.338D-02 0.620D-02 0.968D-02
 Coeff:     -0.185D-01-0.499D-01 0.326D-01 0.170D+00-0.830D-01-0.487D+00
 Coeff:      0.278D+00 0.114D+01
 Gap=     0.352 Goal=   None    Shift=    0.000
 Gap=     0.261 Goal=   None    Shift=    0.000
 RMSDP=1.79D-07 MaxDP=1.70D-05 DE=-1.27D-10 OVMax= 9.85D-06

 Cycle  15  Pass 1  IDiag  1:
 RMSU=  3.33D-08    CP:  1.01D+00  1.14D+00  7.95D-01  1.51D+00  1.40D+00
                    CP:  2.01D+00  3.00D+00  3.00D+00  2.01D+00  1.98D+00
                    CP:  2.74D+00  3.00D+00  1.96D+00  1.47D+00
 FoFJK:  IHMeth= 1 ICntrl=     0 DoSepK=T KAlg= 1 I1Cent= 0 FoldK=F
 E= -301.647690309743     Delta-E=       -0.000000000033 Rises=F Damp=F
 DIIS: error= 1.09D-07 at cycle  15 NSaved=  15.
 NSaved=15 IEnMin=15 EnMin= -301.647690309743     IErMin=15 ErrMin= 1.09D-07
 ErrMax= 1.09D-07 EMaxC= 1.00D-01 BMatC= 2.60D-12 BMatP= 1.21D-11
 IDIUse=1 WtCom= 1.00D+00 WtEn= 0.00D+00
 Coeff-Com:  0.269D-04-0.165D-03-0.212D-03-0.587D-03-0.238D-03 0.730D-02
 Coeff-Com:  0.404D-02-0.132D-01-0.213D-01 0.118D-01 0.886D-01 0.558D-03
 Coeff-Com: -0.349D+00-0.244D-01 0.130D+01
 Coeff:      0.269D-04-0.165D-03-0.212D-03-0.587D-03-0.238D-03 0.730D-02
 Coeff:      0.404D-02-0.132D-01-0.213D-01 0.118D-01 0.886D-01 0.558D-03
 Coeff:     -0.349D+00-0.244D-01 0.130D+01
 Gap=     0.352 Goal=   None    Shift=    0.000
 Gap=     0.261 Goal=   None    Shift=    0.000
 RMSDP=6.60D-08 MaxDP=5.67D-06 DE=-3.33D-11 OVMax= 5.20D-06

 Cycle  16  Pass 1  IDiag  1:
 RMSU=  2.11D-08    CP:  1.01D+00  1.14D+00  7.95D-01  1.51D+00  1.40D+00
                    CP:  2.01D+00  3.00D+00  3.00D+00  2.01D+00  2.00D+00
                    CP:  2.78D+00  3.00D+00  2.11D+00  1.81D+00  1.56D+00
 FoFJK:  IHMeth= 1 ICntrl=     0 DoSepK=T KAlg= 1 I1Cent= 0 FoldK=F
 E= -301.647690309751     Delta-E=       -0.000000000008 Rises=F Damp=F
 DIIS: error= 3.85D-08 at cycle  16 NSaved=  16.
 NSaved=16 IEnMin=16 EnMin= -301.647690309751     IErMin=16 ErrMin= 3.85D-08
 ErrMax= 3.85D-08 EMaxC= 1.00D-01 BMatC= 4.16D-13 BMatP= 2.60D-12
 IDIUse=1 WtCom= 1.00D+00 WtEn= 0.00D+00
 Coeff-Com: -0.103D-04 0.198D-03 0.780D-04-0.564D-03-0.111D-02-0.278D-02
 Coeff-Com:  0.256D-02 0.126D-01-0.408D-02-0.338D-01-0.207D-02 0.101D+00
 Coeff-Com: -0.198D-02-0.202D+00-0.282D+00 0.141D+01
 Coeff:     -0.103D-04 0.198D-03 0.780D-04-0.564D-03-0.111D-02-0.278D-02
 Coeff:      0.256D-02 0.126D-01-0.408D-02-0.338D-01-0.207D-02 0.101D+00
 Coeff:     -0.198D-02-0.202D+00-0.282D+00 0.141D+01
 Gap=     0.352 Goal=   None    Shift=    0.000
 Gap=     0.261 Goal=   None    Shift=    0.000
 RMSDP=2.61D-08 MaxDP=1.68D-06 DE=-7.96D-12 OVMax= 1.58D-06

 Cycle  17  Pass 1  IDiag  1:
 RMSU=  7.53D-09    CP:  1.01D+00  1.14D+00  7.95D-01  1.51D+00  1.40D+00
                    CP:  2.01D+00  3.00D+00  3.00D+00  2.01D+00  2.01D+00
                    CP:  2.78D+00  3.00D+00  2.13D+00  1.88D+00  1.74D+00
                    CP:  1.36D+00
 FoFJK:  IHMeth= 1 ICntrl=     0 DoSepK=T KAlg= 1 I1Cent= 0 FoldK=F
 E= -301.647690309750     Delta-E=        0.000000000001 Rises=F Damp=F
 DIIS: error= 1.29D-08 at cycle  17 NSaved=  17.
 NSaved=17 IEnMin=16 EnMin= -301.647690309751     IErMin=17 ErrMin= 1.29D-08
 ErrMax= 1.29D-08 EMaxC= 1.00D-01 BMatC= 8.51D-14 BMatP= 4.16D-13
 IDIUse=1 WtCom= 1.00D+00 WtEn= 0.00D+00
 Coeff-Com: -0.711D-05 0.790D-04 0.558D-04-0.884D-04-0.281D-03-0.184D-02
 Coeff-Com:  0.110D-03 0.533D-02 0.185D-02-0.102D-01-0.145D-01 0.259D-01
 Coeff-Com:  0.513D-01-0.453D-01-0.277D+00 0.357D+00 0.907D+00
 Coeff:     -0.711D-05 0.790D-04 0.558D-04-0.884D-04-0.281D-03-0.184D-02
 Coeff:      0.110D-03 0.533D-02 0.185D-02-0.102D-01-0.145D-01 0.259D-01
 Coeff:      0.513D-01-0.453D-01-0.277D+00 0.357D+00 0.907D+00
 Gap=     0.352 Goal=   None    Shift=    0.000
 Gap=     0.261 Goal=   None    Shift=    0.000
 RMSDP=6.97D-09 MaxDP=5.82D-07 DE= 1.14D-12 OVMax= 5.09D-07

 SCF Done:  E(UwB97XD) =  -301.647690310     A.U. after   17 cycles
             Convg  =    0.6975D-08             -V/T =  2.0065
 <Sx>= 0.0000 <Sy>= 0.0000 <Sz>= 0.5000 <S**2>= 0.7835 S= 0.5166
 <L.S>= 0.000000000000E+00
 KE= 2.997037640369D+02 PE=-1.172730342648D+03 EE= 3.355222158110D+02
 Annihilation of the first spin contaminant:
 S**2 before annihilation     0.7835,   after     0.7508
 Leave Link  502 at Fri May 26 02:45:35 2023, MaxMem= 3276800000 cpu:     885.6
 (Enter /local/g09-source/g09/l601.exe)
 Copying SCF densities to generalized density rwf, IOpCl= 1 IROHF=0.

 **********************************************************************

            Population analysis using the SCF density.

 **********************************************************************

 Alpha  occ. eigenvalues --  -14.47510 -14.46767 -10.41204 -10.38708 -10.35818
 Alpha  occ. eigenvalues --  -10.35177 -10.33990  -1.09228  -1.03644  -0.91811
 Alpha  occ. eigenvalues --   -0.88246  -0.74262  -0.67671  -0.64550  -0.56193
 Alpha  occ. eigenvalues --   -0.55124  -0.52530  -0.48926  -0.48247  -0.47030
 Alpha  occ. eigenvalues --   -0.44561  -0.38755  -0.37314  -0.35056
 Alpha virt. eigenvalues --    0.00139   0.00434   0.00954   0.01263   0.01294
 Alpha virt. eigenvalues --    0.01715   0.01773   0.01927   0.02018   0.02071
 Alpha virt. eigenvalues --    0.02720   0.04301   0.05446   0.05698   0.06089
 Alpha virt. eigenvalues --    0.06318   0.06657   0.06863   0.07236   0.07445
 Alpha virt. eigenvalues --    0.07687   0.08196   0.09064   0.10258   0.11929
 Alpha virt. eigenvalues --    0.12363   0.13891   0.14348   0.14482   0.15660
 Alpha virt. eigenvalues --    0.16514   0.16676   0.17043   0.18247   0.18702
 Alpha virt. eigenvalues --    0.19141   0.19563   0.20225   0.20272   0.20779
 Alpha virt. eigenvalues --    0.21110   0.23465   0.23938   0.26072   0.26738
 Alpha virt. eigenvalues --    0.27149   0.29003   0.29556   0.30040   0.31320
 Alpha virt. eigenvalues --    0.31840   0.33425   0.34618   0.35144   0.35990
 Alpha virt. eigenvalues --    0.37397   0.37942   0.40170   0.43252   0.45058
 Alpha virt. eigenvalues --    0.48194   0.51876   0.57357   0.58387   0.60226
 Alpha virt. eigenvalues --    0.62456   0.63191   0.64254   0.66083   0.67438
 Alpha virt. eigenvalues --    0.68908   0.69766   0.70863   0.74264   0.76212
 Alpha virt. eigenvalues --    0.79566   0.82072   0.82497   0.83771   0.85744
 Alpha virt. eigenvalues --    0.87034   0.89464   0.92055   0.94027   0.94613
 Alpha virt. eigenvalues --    0.96764   0.99761   1.02494   1.02753   1.07741
 Alpha virt. eigenvalues --    1.09716   1.13155   1.13640   1.15588   1.18586
 Alpha virt. eigenvalues --    1.22939   1.30116   1.31804   1.32889   1.35900
 Alpha virt. eigenvalues --    1.40090   1.49542   1.55207   1.56664   1.57931
 Alpha virt. eigenvalues --    1.61397   1.65328   1.68144   1.69799   1.73045
 Alpha virt. eigenvalues --    1.77601   1.81029   1.84258   1.88330   1.92889
 Alpha virt. eigenvalues --    1.95218   1.96488   2.01788   2.07881   2.11448
 Alpha virt. eigenvalues --    2.13491   2.14555   2.19906   2.21898   2.32908
 Alpha virt. eigenvalues --    2.35148   2.39770   2.48144   2.50426   2.60282
 Alpha virt. eigenvalues --    2.66012   2.70248   2.72392   2.77419   2.77982
 Alpha virt. eigenvalues --    2.81763   2.83804   2.86531   2.89943   2.92548
 Alpha virt. eigenvalues --    2.95811   2.98632   2.99971   3.01909   3.05949
 Alpha virt. eigenvalues --    3.06968   3.10173   3.18058   3.23184   3.26326
 Alpha virt. eigenvalues --    3.40449   3.42108   3.44693   3.51559   3.57825
 Alpha virt. eigenvalues --    3.61144   3.67039   3.99444   4.04787   4.06529
 Alpha virt. eigenvalues --    4.10996   4.22622   4.35156   4.41569   4.45749
 Alpha virt. eigenvalues --    4.63386   5.06905   5.16373   5.73664  26.64230
 Alpha virt. eigenvalues --   26.70608  26.71781  26.80324  26.93788  39.67501
 Alpha virt. eigenvalues --   39.84112
  Beta  occ. eigenvalues --  -14.47058 -14.47019 -10.40501 -10.38301 -10.36026
  Beta  occ. eigenvalues --  -10.34901 -10.34104  -1.08502  -1.02796  -0.91636
  Beta  occ. eigenvalues --   -0.86174  -0.73397  -0.66987  -0.64199  -0.55931
  Beta  occ. eigenvalues --   -0.52519  -0.51603  -0.48378  -0.47554  -0.44347
  Beta  occ. eigenvalues --   -0.44189  -0.38757  -0.37336
  Beta virt. eigenvalues --   -0.11215   0.00162   0.00435   0.01008   0.01289
  Beta virt. eigenvalues --    0.01345   0.01729   0.01888   0.01935   0.02084
  Beta virt. eigenvalues --    0.02738   0.04019   0.04449   0.05454   0.05789
  Beta virt. eigenvalues --    0.06177   0.06452   0.06743   0.06937   0.07293
  Beta virt. eigenvalues --    0.07781   0.08223   0.09124   0.09389   0.10517
  Beta virt. eigenvalues --    0.12140   0.12516   0.14293   0.14447   0.15252
  Beta virt. eigenvalues --    0.15838   0.16614   0.16754   0.17817   0.18188
  Beta virt. eigenvalues --    0.18786   0.19519   0.19651   0.20362   0.20594
  Beta virt. eigenvalues --    0.21065   0.21508   0.23589   0.24074   0.26188
  Beta virt. eigenvalues --    0.27216   0.27322   0.29012   0.29884   0.30245
  Beta virt. eigenvalues --    0.31453   0.32126   0.33522   0.34811   0.35311
  Beta virt. eigenvalues --    0.36242   0.37527   0.38207   0.40413   0.43399
  Beta virt. eigenvalues --    0.45288   0.48600   0.52369   0.57698   0.58534
  Beta virt. eigenvalues --    0.60416   0.63158   0.63644   0.65508   0.66443
  Beta virt. eigenvalues --    0.68054   0.68990   0.70212   0.71234   0.74502
  Beta virt. eigenvalues --    0.76530   0.79785   0.82316   0.82638   0.84018
  Beta virt. eigenvalues --    0.86032   0.87400   0.89800   0.92427   0.94136
  Beta virt. eigenvalues --    0.95004   0.96784   1.00456   1.02644   1.03047
  Beta virt. eigenvalues --    1.08303   1.09982   1.13704   1.14399   1.16736
  Beta virt. eigenvalues --    1.19262   1.24305   1.30039   1.32228   1.33195
  Beta virt. eigenvalues --    1.35775   1.40202   1.50098   1.55371   1.57001
  Beta virt. eigenvalues --    1.58423   1.62361   1.65850   1.68271   1.70230
  Beta virt. eigenvalues --    1.73686   1.78481   1.81947   1.85026   1.89834
  Beta virt. eigenvalues --    1.93625   1.96522   1.97765   2.02116   2.08824
  Beta virt. eigenvalues --    2.12523   2.14975   2.16154   2.20655   2.22762
  Beta virt. eigenvalues --    2.33269   2.35845   2.40485   2.48494   2.51156
  Beta virt. eigenvalues --    2.60377   2.66063   2.70981   2.73338   2.77609
  Beta virt. eigenvalues --    2.79195   2.82071   2.83880   2.86678   2.90426
  Beta virt. eigenvalues --    2.93764   2.96170   2.99474   2.99785   3.03775
  Beta virt. eigenvalues --    3.06576   3.08815   3.10901   3.18434   3.24131
  Beta virt. eigenvalues --    3.26901   3.40777   3.43150   3.45137   3.52246
  Beta virt. eigenvalues --    3.58566   3.61615   3.67170   3.98574   4.05904
  Beta virt. eigenvalues --    4.08474   4.11793   4.23187   4.35705   4.41474
  Beta virt. eigenvalues --    4.46602   4.64586   5.07411   5.16332   5.74695
  Beta virt. eigenvalues --   26.64411  26.71572  26.72856  26.80058  26.94025
  Beta virt. eigenvalues --   39.67176  39.84742
     Alpha Molecular Orbital Coefficients:
                           1         2         3         4         5
                           O         O         O         O         O
     Eigenvalues --  -.14475100046575E+02 -.14467671906536E+02 -.10412040861389E+02 -.10387080155486E+02 -.10358183185810E+02
   1 1   N  1S       -.29817263220598E-04 0.55840667442984E+00 -.40074139972074E-04 -.71432299100879E-04 -.62287362724790E-06
   2        2S       -.27069647632848E-04 0.46257336781728E+00 -.66987780966641E-04 -.11917331305197E-03 0.13277686324898E-04
   3        3S       -.20889833140382E-04 0.18463440383934E-01 -.18502277484898E-03 0.72826817448817E-04 0.37041602764910E-04
   4        4S       0.31911086910857E-03 0.68522514013924E-02 0.11760992833832E-02 0.50631879522723E-03 -.34051431535306E-03
   5        5S       0.23841966046481E-03 -.22723978404702E-02 -.90624141529890E-02 -.11359384983377E-01 -.11844517006989E-02
   6        6S       0.99496372850654E-04 -.11798360371054E-02 -.15722087736101E-02 -.95065137961975E-03 0.70316719334747E-03
   7        7S       0.13407924707334E-03 0.94531266434980E-03 0.20295963715616E-02 0.98659137548741E-03 -.53206459361209E-03
   8        8S       -.24611465071036E-04 -.14786034462839E-05 0.43683210491021E-04 -.90132708766659E-04 -.84980132022205E-05
   9        9PX      -.57614325535101E-05 -.18525927141456E-03 -.16186483454362E-04 0.85989539034649E-04 0.15170838146971E-04
  10        9PY      0.34630918624735E-05 0.22502345242369E-02 -.38505804760435E-04 0.24212958782437E-04 -.22597493845899E-05
  11        9PZ      -.98720102343429E-06 0.10220125025001E-03 0.75146604847938E-05 -.95109350686104E-05 -.23392834449069E-06
  12       10PX      0.19173700129092E-04 0.61442317117592E-04 -.43150716635322E-03 0.39799334965983E-03 -.69577785593368E-04
  13       10PY      -.20671327911202E-04 -.16165404799316E-02 0.46767653208704E-03 0.57243783986082E-03 0.31879261944961E-04
  14       10PZ      0.31322622897048E-05 -.51621117671145E-04 -.68141169595796E-05 -.21213744031271E-05 -.64392257094874E-06
  15       11PX      -.39508087232594E-04 -.52359551708311E-03 -.31062085187658E-04 0.21899446528642E-03 -.18694314724037E-03
  16       11PY      0.36215913439624E-04 0.19036093786235E-02 0.24280186462501E-03 0.20557980780371E-03 -.40632645874548E-03
  17       11PZ      -.57053819966080E-04 0.68957983610077E-04 0.15624204884257E-03 -.59710743522664E-04 -.62133805518470E-04
  18       12PX      0.40142651195410E-03 0.37636463871425E-03 0.17577639535291E-02 -.24787291421686E-02 0.23567868673761E-03
  19       12PY      0.30603244848897E-03 -.32120373809488E-03 -.26154045449226E-02 -.40749911071788E-02 -.91130126880208E-04
  20       12PZ      -.24268895505650E-04 -.21300274148770E-04 -.43455511073085E-03 0.40756105498639E-03 -.17837937527740E-03
  21       13PX      -.75268852045939E-04 0.23830704678416E-03 0.56390953814073E-03 0.50124318952831E-04 0.33943602625379E-03
  22       13PY      0.18726172847296E-04 -.14322274326241E-03 0.24844007587269E-03 0.27383659274106E-03 0.33915437619353E-03
  23       13PZ      -.11937832253546E-04 -.26261305910714E-05 -.38840419618907E-04 0.10504083945153E-03 -.55914168363604E-04
  24       14PX      -.59086091759206E-04 -.24320586331679E-03 -.61407449300142E-03 -.15191513044404E-03 0.12738224624768E-03
  25       14PY      -.25012150986441E-04 -.23065325259535E-05 -.11813127277620E-03 -.82121877595808E-04 0.27400689275132E-04
  26       14PZ      0.71499317685829E-05 0.52309448635618E-06 0.18288158987866E-04 -.54317933856429E-04 -.11086701349213E-04
  27       15XX      -.19331372789917E-04 -.62149072514371E-02 0.23326463606597E-03 0.15062455067575E-03 0.80945975237676E-04
  28       15YY      0.30377338765319E-05 -.61106299609682E-02 0.12484218574525E-03 0.17622834245019E-03 0.46133328389772E-05
  29       15ZZ      -.58946482150834E-05 -.60631252665178E-02 -.22398285501999E-03 -.20297912595627E-03 0.57665793038326E-04
  30       15XY      0.32491664902463E-04 -.42482920711215E-04 -.29849178697017E-03 0.26370543277783E-03 -.69278392386273E-05
  31       15XZ      0.45359776342125E-06 0.96565983361327E-05 -.31095230186464E-04 -.25365285123817E-04 -.26775015959859E-05
  32       15YZ      -.91991095076868E-05 0.46937023040025E-05 0.26880021421881E-04 -.51501073891113E-05 -.20035912765776E-04
  33 2   C  1S       -.11925755015738E-05 0.27990495286139E-05 0.56406361381898E+00 0.19077293762381E-03 -.24582694867589E-02
  34        2S       0.96777970262569E-05 -.13409253736468E-04 0.45940707260515E+00 0.15150253336561E-03 -.20224607537120E-02
  35        3S       -.24054918101472E-04 -.13718117076861E-03 0.20439315363034E-01 -.58312410217344E-04 0.49665135928518E-03
  36        4S       -.11057684595276E-01 -.63132819642076E-03 0.16991349224113E-01 0.16825777638555E-02 -.11759275583042E-01
  37        5S       -.18659601254390E-01 0.34760500713143E-02 -.55940141338908E-01 0.32084389829218E-01 -.99656945010190E-01
  38        6PX      -.78950551350085E-04 -.15164055596780E-03 -.45470200866254E-03 -.45936710900638E-05 0.79039533312270E-04
  39        6PY      -.30377623338575E-04 0.89431242615941E-04 -.21813578172663E-03 -.37718000890558E-04 0.31156508562484E-04
  40        6PZ      -.77730885822055E-05 0.23335357484927E-05 -.89930748690183E-04 0.22955836276851E-05 0.53351839067675E-05
  41        7PX      0.81886619193976E-03 0.70745550123190E-03 0.77602341193337E-03 -.50925338996843E-04 -.14475176256285E-02
  42        7PY      0.32714417794825E-03 -.41039026277484E-03 0.17536208774097E-03 0.21678980852595E-03 -.60924097385822E-03
  43        7PZ      0.52426888825767E-04 -.97657897138841E-05 0.16897462366771E-03 0.10421411933866E-05 -.84343306182511E-04
  44        8PX      0.51520887031983E-02 -.35213715816133E-02 -.39247568816763E-02 -.30133023740129E-02 0.83961297875783E-02
  45        8PY      0.21468548293776E-02 0.61514833289089E-03 -.79197957823307E-03 -.21583185505374E-02 0.33564744772102E-02
  46        8PZ      0.51216250333191E-03 0.81975826868044E-04 -.41966805404224E-03 -.33206269818882E-04 0.51371727864423E-03
  47        9PX      0.22799029055716E-02 -.26345179988030E-04 0.20778073789597E-01 0.23057808567184E-01 0.52649235094627E-01
  48        9PY      -.12234440230255E-02 -.10340091865741E-02 0.21149922605944E-02 0.17055876540952E-01 0.14641174251602E-01
  49        9PZ      0.38229291956792E-03 -.16802062822719E-03 0.11517900355172E-02 -.14733152271385E-02 0.16976854803034E-02
  50       10XX      -.52553433754983E-03 0.31268197461727E-03 -.88465477019410E-02 -.10312150286358E-03 0.85917495877334E-03
  51       10YY      0.62580146453638E-04 -.78116519862562E-04 -.85566496798923E-02 0.29720457869942E-04 0.82711312083664E-04
  52       10ZZ      0.99889557672312E-04 -.13997544719615E-04 -.77990082597021E-02 -.42922210307988E-04 0.77027487325143E-04
  53       10XY      -.29603900175972E-03 -.47027931151594E-03 -.24141829321626E-03 0.96672570410602E-04 0.38326904140232E-03
  54       10XZ      -.93592472802488E-04 -.25911886482857E-04 -.32950424194839E-04 0.25609920955360E-04 0.32921418320916E-04
  55       10YZ      -.39741392611948E-04 0.10192996656814E-04 0.41803766409100E-05 0.77657663874945E-06 0.96553694123586E-05
  56 3   C  1S       -.72200133318386E-06 0.54012525172808E-05 0.20376738263226E-02 -.41140973524368E-05 -.44726049261798E-04
  57        2S       0.27030735875204E-05 -.17397514420358E-04 0.16445272444919E-02 -.47912596739261E-04 -.53168832638567E-04
  58        3S       -.15560072042842E-04 0.18618943586565E-03 0.51421520878542E-03 -.58665061877095E-04 0.15080003401652E-04
  59        4S       0.11130157074856E-02 -.40822309839068E-03 -.32870795866225E-02 0.30407944300607E-02 0.23598418059250E-02
  60        5S       0.10972085646139E-01 -.42480930661683E-02 0.19222804274546E-01 -.51863146136302E-01 0.37790923339044E-01
  61        6PX      0.20110573532094E-05 0.12488655575844E-04 -.68168955981760E-04 0.23605479503846E-04 0.21351432878672E-04
  62        6PY      -.10974048572429E-04 0.22229146933117E-04 0.27231908348011E-05 -.26809864173974E-04 -.98372468358071E-05
  63        6PZ      0.48292867665620E-06 -.74799501115488E-05 -.46462182270999E-05 0.28963963048034E-06 0.12612416225419E-05
  64        7PX      -.10790400402344E-04 0.36588729391958E-04 0.11940006044544E-03 -.10818999059697E-03 -.23024873376187E-03
  65        7PY      0.78296990952115E-04 -.29685398028366E-03 -.11319685196332E-02 0.13954699943117E-03 -.74771987136919E-04
  66        7PZ      -.26450941946075E-05 0.35969738481345E-04 0.65368362652415E-04 -.24451843355761E-05 -.95609543324270E-05
  67        8PX      0.70197063082785E-03 0.87110103816199E-03 -.50373383295467E-04 0.70069914056277E-03 0.13383053564372E-02
  68        8PY      -.36538414058872E-04 -.55289586936750E-03 0.14177797737973E-02 -.97832167325786E-03 0.32240707329552E-03
  69        8PZ      -.24235007566523E-04 -.96456915197967E-04 -.43834087628383E-04 0.88580557256301E-04 0.33633248542919E-04
  70        9PX      0.13237892082598E-02 -.15299688407072E-02 0.63239887680788E-03 -.63985706094681E-02 0.43546111284553E-02
  71        9PY      -.18391939219425E-02 -.54197308600422E-03 -.25188888937745E-02 0.10619813874166E-01 -.45786821910299E-02
  72        9PZ      0.19395566882436E-03 -.41760391314625E-04 0.22865634410789E-03 -.49442295867441E-03 0.65598909484519E-03
  73       10XX      0.41656970806383E-04 -.59988887705160E-04 0.15093713015727E-03 -.20861349336617E-03 -.15049869449080E-03
  74       10YY      -.35559011806948E-04 0.41671245115873E-04 0.74336015535383E-03 -.21729566900328E-03 0.10567461659350E-04
  75       10ZZ      0.24163001172082E-05 0.55237369404424E-04 -.74748471614246E-04 -.47937621512513E-04 0.26174679608504E-04
  76       10XY      -.39028756074751E-04 0.81254010823839E-04 0.14213726450666E-03 0.10454390103895E-03 0.60823156166719E-04
  77       10XZ      0.73091997102764E-06 0.21292069031183E-04 0.18145193073141E-04 0.91741741588543E-05 -.24123671223206E-04
  78       10YZ      0.94392049440464E-05 -.13841603881033E-04 -.56461522880770E-04 -.16295392320076E-04 0.14730391522837E-04
  79 4   C  1S       -.92845700835567E-06 0.67740156798067E-05 -.29081542189959E-04 0.24558371683911E-02 -.92039922335017E-04
  80        2S       0.42469502673881E-05 -.23459342441774E-04 -.53393197698637E-04 0.19976829728092E-02 -.52388519674368E-04
  81        3S       0.68841611085494E-04 0.60753923008613E-04 -.19673957115200E-03 0.13607818835830E-03 0.31128117776170E-03
  82        4S       -.15076675587423E-02 0.34311666029887E-03 0.18470469872514E-02 -.22660749639114E-02 -.29429227984346E-02
  83        5S       -.65760573624552E-02 0.45128693645825E-02 -.24690687308651E-01 0.27427906088110E-01 -.36361002760884E-01
  84        6PX      -.14644874908511E-04 -.51954317556531E-04 -.25802800482397E-04 -.38995904858199E-05 0.13028242286148E-04
  85        6PY      -.94656042520480E-05 -.82058920388133E-05 -.13634665316068E-04 0.56945196786449E-04 -.12935163323073E-04
  86        6PZ      -.28930763245107E-05 0.51659144806151E-05 0.20487850812010E-05 0.17141435319736E-05 -.56758298799021E-05
  87        7PX      0.90388077090739E-04 0.18594005732375E-03 0.23568825708160E-03 0.24826672499441E-03 -.18548222575335E-03
  88        7PY      0.42250416760402E-04 -.95302355712285E-04 0.17124484215299E-03 -.86828397007445E-03 0.24771978671733E-05
  89        7PZ      0.12563718488949E-04 -.29656455042211E-04 -.15397293838411E-05 -.66511437831457E-04 0.17915750445689E-04
  90        8PX      0.94724865029162E-03 -.41368497690091E-03 -.97083795687016E-03 0.33192627475015E-03 0.31605337530420E-02
  91        8PY      0.38816024218090E-03 -.36535771607228E-03 -.10460412893118E-02 0.10733571294016E-02 0.10396292716131E-02
  92        8PZ      0.43722740372141E-05 0.74077517983427E-04 -.10841112255683E-04 0.70336140355032E-04 -.35301361835673E-04
  93        9PX      0.11621852452452E-02 -.17473108259407E-02 0.17006062955805E-02 -.15532370578827E-02 0.12166812547445E-01
  94        9PY      0.75584836168125E-03 0.12855335397932E-04 0.49368180253477E-02 -.35616348948459E-02 0.67967026935988E-02
  95        9PZ      0.22963140832477E-04 -.56815423513537E-04 0.18558783321466E-03 -.38857133204833E-03 -.79803328014066E-04
  96       10XX      -.44991688937104E-05 -.56272791716553E-04 -.25539708456509E-03 0.16987777054469E-03 0.17574340847890E-03
  97       10YY      0.94954964402837E-05 -.56563074375932E-05 -.11420614306366E-03 0.65433097568944E-03 0.55941448503281E-04
  98       10ZZ      0.33792677157717E-04 -.14754709057546E-04 -.93266817152212E-04 -.14039976147212E-03 0.12686389854683E-03
  99       10XY      -.24679211317697E-04 -.11705196772812E-03 -.86761978521613E-04 -.22008254050311E-03 -.55343941213225E-05
 100       10XZ      0.24751691022117E-05 0.43485490982518E-05 -.31591811162460E-05 -.33634644667689E-04 0.30029887823780E-05
 101       10YZ      0.61350912087967E-05 0.36608054982874E-05 0.61962659926661E-05 0.63365393142619E-04 0.11653385123208E-04
 102 5   C  1S       -.21088074063718E-07 0.16232561220476E-04 -.18382615739760E-03 0.56419733319194E+00 0.33500891329913E-05
 103        2S       0.90578354086656E-06 -.34369344845594E-04 -.15797337170341E-03 0.45965902652349E+00 0.53426648610845E-05
 104        3S       0.62062819059918E-04 0.31979577227962E-04 -.20318314343237E-03 0.19729934722039E-01 0.23408116358650E-03
 105        4S       -.69974973409032E-03 -.18238461747318E-02 0.38533262418086E-03 0.11514094207014E-01 -.95988916126135E-03
 106        5S       0.13703408838263E-02 0.88501029618099E-03 0.11017730919082E-01 -.18326042001780E-01 -.14027313229492E-01
 107        6PX      -.19923364456128E-04 0.72878732170240E-04 -.20049632661970E-04 -.22846254963181E-03 -.13613136522646E-04
 108        6PY      -.40082010739594E-05 0.55328720327856E-04 -.13615949630047E-04 -.17426797095294E-03 0.49986390842248E-05
 109        6PZ      -.49944317234663E-05 -.64494179931123E-05 0.64756690149877E-05 0.40170860853365E-04 -.66756944989446E-05
 110        7PX      0.98176070703738E-04 -.59831261370131E-03 0.25080609653020E-03 0.43242552652238E-03 -.99361629438267E-05
 111        7PY      0.32941491706293E-04 -.53855582972197E-03 0.58365943306491E-04 0.99589438592399E-04 -.54840074691141E-05
 112        7PZ      0.20096998109579E-04 0.37329356663796E-04 -.35984877465315E-04 -.25269364105205E-04 0.35869270158204E-04
 113        8PX      0.20554481301692E-03 0.10709707386312E-02 -.24092683768222E-03 -.20688048991399E-02 0.62247071943576E-03
 114        8PY      0.53646681685425E-04 0.44764753751376E-03 -.29635849183522E-03 0.85965475927061E-04 -.26359971709799E-03
 115        8PZ      -.83070677355512E-04 -.85307988069113E-04 0.18653084327021E-04 0.22755273359571E-03 -.12331795080170E-03
 116        9PX      -.80656737338406E-03 -.63427318618490E-04 -.39230189946090E-02 0.75644634805013E-02 0.54745356730483E-02
 117        9PY      0.43438944179563E-03 -.45359768857897E-04 0.42271423973930E-02 -.51045281655483E-02 -.26027504671042E-03
 118        9PZ      0.11945648178527E-03 0.41484218078011E-04 0.67516613161331E-03 -.12948820241453E-02 -.67347104011134E-03
 119       10XX      -.31208451621130E-04 0.35802566351260E-03 -.77052906585703E-04 -.79961175557798E-02 -.36760883920001E-04
 120       10YY      0.10345586881730E-04 0.16105844231873E-03 -.46188983822369E-04 -.79839980749115E-02 0.41350776616857E-04
 121       10ZZ      0.25230338204989E-04 -.45267171619330E-04 -.87960249213707E-04 -.74897203307399E-02 0.98946268496357E-04
 122       10XY      -.24654325426629E-04 0.56562254064936E-03 -.46927319670836E-04 0.16589115310568E-03 -.32283774468562E-04
 123       10XZ      0.14668033058985E-04 -.99490659715414E-05 -.91885634623868E-05 0.12074784073759E-03 0.19145633967661E-04
 124       10YZ      -.36145247439139E-05 -.51371444519480E-04 0.16793893073438E-04 -.67098476579785E-04 -.10145660298202E-04
 125 6   C  1S       0.63096086240248E-04 -.43500180789312E-05 0.23702873796907E-02 -.51051925412071E-05 0.56395282353622E+00
 126        2S       -.57131152051047E-04 0.20815719934294E-04 0.19436312464434E-02 0.97026760695212E-06 0.45961195423506E+00
 127        3S       0.31568648696708E-03 0.12194514081799E-03 0.57548781608583E-03 0.12684309557208E-03 0.19751383266925E-01
 128        4S       -.23702801814508E-02 -.16307427449106E-02 -.39502951249829E-02 -.23487300446980E-02 0.14811235165467E-01
 129        5S       0.97717984190122E-02 -.24185072021390E-02 0.57337038840240E-01 0.24276226090358E-01 0.12176218238039E+00
 130        6PX      -.15572547486210E-03 -.18455326552691E-04 -.16549045347847E-04 0.24161349648339E-04 0.31656274749852E-03
 131        6PY      -.54291538227081E-04 0.15690502400404E-04 -.89374512391135E-05 0.23376148328782E-05 0.16888921581995E-03
 132        6PZ      0.13952069534462E-06 -.22679652073984E-05 0.28960153230728E-06 0.15991985042817E-06 0.42015992578437E-04
 133        7PX      -.17293226000180E-02 0.36670555771761E-04 0.10995519515030E-02 -.13287351292022E-03 -.32591388349001E-03
 134        7PY      -.64763106299503E-03 -.79439727054359E-04 0.42596509473681E-03 -.23838882275912E-04 -.18468923856719E-03
 135        7PZ      0.13775516748431E-04 0.12167924078146E-04 0.63358474128051E-04 0.11257247629344E-05 -.11551592840389E-03
 136        8PX      0.14370289321012E-01 -.12998093634865E-02 -.55096495490111E-02 -.26113658510528E-02 0.11685423091925E-01
 137        8PY      0.53574729225242E-02 -.10274279186215E-02 -.23595345035440E-02 -.76129613259936E-03 0.45483450702032E-02
 138        8PZ      0.33756577303288E-03 -.17530208257779E-03 -.20609242363056E-03 -.18941085735474E-03 0.65180289508977E-03
 139        9PX      0.43977780739370E-02 -.61876476275922E-03 0.13369493357416E-01 0.31322000537538E-02 0.26122887437399E-01
 140        9PY      0.21712843075758E-02 -.13089891031220E-03 0.65438360182259E-02 -.60935597162302E-04 0.10970535835862E-01
 141        9PZ      0.11800120358108E-03 0.76063870083420E-04 0.11027061351080E-02 0.15006919013457E-02 0.27723870823269E-02
 142       10XX      0.20482542617543E-02 0.36060140461903E-03 0.12960253494771E-02 0.23625296871056E-04 -.86368504015874E-02
 143       10YY      -.14611256330495E-03 -.34430245731544E-04 0.13278568621412E-03 0.46350770640773E-04 -.80120781490106E-02
 144       10ZZ      -.51549048785434E-03 0.43277983580748E-04 -.11880284689437E-03 0.33225365432994E-04 -.79839526588505E-02
 145       10XY      0.10911946789811E-02 0.20601346462116E-04 0.57604103090036E-03 0.34728559475138E-04 -.29868051894089E-03
 146       10XZ      0.50392576771098E-04 0.78641147552323E-06 0.87201657549491E-04 -.10811753890652E-04 -.18786843582434E-04
 147       10YZ      0.18309187007595E-04 -.19344981230041E-04 0.28016551211835E-04 0.31928985339242E-05 -.87995253171040E-05
 148 7   N  1S       0.55819807163971E+00 0.30651045770818E-04 -.26607780794918E-06 -.53979285962313E-06 -.27682716634582E-03
 149        2S       0.46243243407692E+00 0.23006931432057E-04 0.11943370412128E-04 0.27521376330596E-05 -.33432680616556E-03
 150        3S       0.18023531683717E-01 -.22194404523076E-04 -.19067005865503E-03 0.44635017381229E-04 0.36618708152016E-03
 151        4S       0.15539488849015E-01 -.76209846890860E-03 -.24379436073361E-02 -.12763952261046E-02 0.79713887679804E-02
 152        5S       0.48427346851074E-02 -.23620665657637E-03 -.38861926772867E-02 -.87470893837916E-03 -.49617887231417E-02
 153        6S       0.87536878052153E-05 0.44995360027572E-03 0.52152157290712E-03 0.38625811209471E-03 -.74364971518294E-03
 154        7S       -.19641684596043E-03 -.84174817729344E-03 -.19147900413662E-02 -.73169895134718E-03 0.63964996396453E-03
 155        8S       0.43086214194359E-04 -.21261778787280E-04 -.58297844160929E-04 0.27834961643757E-04 -.17193610738325E-04
 156        9PX      0.22504006402167E-02 0.10142036668453E-04 -.51795955668083E-05 0.79432584451377E-05 0.14625248957122E-03
 157        9PY      0.84709803262886E-03 0.19109906446232E-04 0.61092364194625E-05 -.42271741336525E-05 0.49252211071110E-04
 158        9PZ      -.29365650114111E-04 0.35695326176702E-05 -.13150494969993E-05 0.70173207371052E-05 -.81774335204399E-06
 159       10PX      -.29286914232195E-02 -.12591044172684E-03 -.33711068101812E-03 -.54895851723174E-04 0.11740275310743E-02
 160       10PY      -.10837535404535E-02 -.10515125500848E-03 -.15625995257198E-03 0.77943151527031E-05 0.44928258186239E-03
 161       10PZ      0.54461947549873E-04 -.13342611489193E-04 0.94722671849416E-05 -.30793142951105E-04 0.91872397526947E-05
 162       11PX      0.48018181731073E-02 -.23911190877138E-03 -.40617849709072E-03 -.28092093708331E-03 0.21554446572485E-02
 163       11PY      0.17661678152399E-02 0.10397823412194E-03 0.15224251087049E-04 -.20875943557417E-03 0.72444981861703E-03
 164       11PZ      -.14322358015671E-03 0.65951228802807E-04 0.95976562147007E-04 0.12349045912770E-03 -.13903833355859E-03
 165       12PX      0.55944242560427E-03 -.44834536785360E-04 -.21619575884361E-02 0.13580097414751E-03 -.34191072251490E-02
 166       12PY      0.10327704514423E-03 -.10224541134987E-04 -.11324151327750E-02 0.17882094314236E-03 -.14046694438341E-02
 167       12PZ      -.29854699272861E-04 -.31007905538515E-04 -.22084503826818E-03 -.30655474592875E-03 -.55097027284126E-03
 168       13PX      -.22227683462233E-03 0.18502690514475E-03 0.45529888168197E-04 0.21508528707440E-03 -.29704924869016E-03
 169       13PY      -.10403763487266E-03 -.17859386134963E-05 -.22542399966041E-03 0.31551943404838E-05 -.27543221834840E-03
 170       13PZ      -.57770256237060E-05 -.10390389667231E-04 -.57608153092054E-04 -.10657260053781E-03 -.15757929290095E-03
 171       14PX      0.16648142252461E-04 -.19830862701616E-03 -.38783466080311E-03 -.19721314355007E-03 0.15614126263316E-03
 172       14PY      0.32674880605767E-04 0.31607336265027E-05 0.79246027082272E-04 0.45935423195820E-04 0.53042100532741E-05
 173       14PZ      -.35109240226000E-05 0.13416400613128E-05 0.58497362154859E-06 0.51355263952056E-04 0.48544790707160E-04
 174       15XX      -.72844153668108E-02 -.65881931665655E-04 -.12063131228923E-03 -.94931186069904E-05 0.30691565505122E-03
 175       15YY      -.67246889380206E-02 -.32622150193261E-05 0.95638333807881E-05 0.16385951886362E-04 -.23376477321069E-03
 176       15ZZ      -.65366310478517E-02 0.71170236260059E-05 0.30257369115299E-04 0.20349867087471E-04 -.30965470949352E-03
 177       15XY      -.27542098149736E-03 -.44654361297655E-04 -.52121535395407E-04 -.12701252150889E-04 0.26285900273263E-03
 178       15XZ      0.43713666835841E-05 0.31000387471467E-05 0.24556661753863E-04 0.55248010427867E-05 -.21144147353903E-04
 179       15YZ      0.54524913407382E-05 0.30196364343927E-05 0.98232916893744E-05 0.74139981838591E-06 -.69087808936417E-05
 180 8   H  1S       -.64398217670029E-05 -.24030687982743E-04 0.15313523658921E-04 0.24705356332778E-05 -.25165396656499E-04
 181        2S       0.56671494155018E-05 0.47814726011168E-03 0.91651416280984E-04 0.16548165323387E-03 0.74522898182229E-04
 182        3S       0.85385013230670E-04 0.28706359136430E-03 -.36774509526806E-03 -.20244365007067E-03 0.12640342610225E-03
 183        4S       0.43431492287216E-03 0.39449586584827E-04 -.45945636400775E-03 -.25395890486467E-02 0.11233672920914E-02
 184        5PX      -.22804688923401E-04 0.33344443954583E-04 -.34121691590677E-04 0.15929900918505E-05 -.57689459581068E-04
 185        5PY      0.11200785607895E-04 -.11935846554102E-03 -.58850957227116E-04 -.39638105767443E-04 -.84214578299567E-04
 186        5PZ      0.41915987056406E-05 0.72492833046593E-05 0.77958430128355E-05 -.49214623819419E-05 -.15088676251213E-05
 187 9   H  1S       0.17777868025715E-04 0.11904354078541E-04 -.84456854319038E-05 -.12939787009507E-04 0.41213476630056E-04
 188        2S       -.15437986806072E-03 0.71191637818977E-04 0.19641755326346E-03 -.12058797220062E-03 -.49311053342379E-03
 189        3S       -.21491274846988E-03 0.81649579775373E-04 0.60540628903910E-03 -.28509060628404E-03 -.14707160106818E-02
 190        4S       -.11394702292720E-03 0.54027846887335E-03 -.73055583618688E-03 0.12550550911910E-03 -.43420803181687E-02
 191        5PX      0.11389769950285E-04 -.32147664218148E-04 -.51995930755281E-04 0.25031344808903E-04 0.57066798649449E-04
 192        5PY      0.12287568247115E-04 0.44249221457128E-04 -.99005874403427E-05 0.12569097774217E-03 0.65678099856709E-04
 193        5PZ      -.31219013242009E-05 -.21603143178005E-06 0.81989447366738E-05 -.46717405807328E-07 -.88778455965335E-05
 194 10  H  1S       0.99104605465572E-06 0.20741398182372E-04 0.26913983746284E-04 0.85713063756596E-04 0.21857244229227E-05
 195        2S       0.30774603768252E-05 0.89624142226314E-04 -.16115262145036E-03 0.86249065685591E-03 -.13873437299061E-04
 196        3S       -.29774761631748E-04 -.26060405953222E-03 0.57559321224970E-03 -.11533360758109E-02 -.32385607494534E-03
 197        4S       0.49330804206570E-03 0.82383058383985E-04 0.19442402833072E-02 -.30884325569706E-02 -.18460862258377E-02
 198        5PX      0.20786523473345E-06 -.11105449083498E-03 0.35088899450568E-04 -.54940570297530E-03 -.34329424338759E-06
 199        5PY      -.47668163870959E-05 -.59402037336579E-04 0.15159356886794E-04 0.14007498969647E-03 -.21668041367594E-05
 200        5PZ      0.38257841525301E-05 0.71043691273616E-05 -.28786095420233E-05 0.11875159442116E-03 0.37465191700161E-05
                           6         7         8         9        10
                           O         O         O         O         O
     Eigenvalues --  -.10351766970142E+02 -.10339901784136E+02 -.10922765353590E+01 -.10364397860490E+01 -.91811130878031E+00
   1 1   N  1S       0.61315773411315E-05 0.36530202392420E-05 -.71545674513417E-01 0.15539442182592E-01 0.66459872499797E-01
   2        2S       -.15798298360121E-04 -.64556717624317E-05 -.11220237208320E+00 0.24391558010575E-01 0.10522564500315E+00
   3        3S       -.13413773608651E-04 0.19881362062598E-04 0.30484953422699E+00 -.67112493494888E-01 -.29421068772763E+00
   4        4S       0.10248727166595E-02 0.33409304274462E-03 0.20303347188985E+00 -.42943501039350E-01 -.22018103239372E+00
   5        5S       -.16737290477267E-02 -.97533813474777E-03 -.13947064481090E+00 0.25858527776891E-01 0.49971507802709E-01
   6        6S       0.91318809159914E-03 0.66747465388655E-03 -.19654062459615E-01 0.15403069641203E-01 0.28960270599471E-01
   7        7S       -.82986773883739E-03 -.57676568488343E-03 0.22389107517969E-01 -.24070506285853E-01 -.19045341822225E-01
   8        8S       -.24698410182626E-04 0.53799679137349E-05 0.45557977740419E-06 -.26467096508284E-03 0.29897540756264E-03
   9        9PX      -.16834769277922E-04 0.95838627170709E-05 -.99296297243337E-03 -.60478647330321E-02 -.20900663860068E-01
  10        9PY      0.21864862510907E-04 0.21592539911381E-04 0.53512238400607E-01 -.12605074148964E-01 -.28162574435939E-01
  11        9PZ      0.15597541485450E-05 -.17955771984257E-05 0.15860666572653E-03 0.11929784539276E-03 0.91452505078526E-03
  12       10PX      0.81620722760381E-04 -.61048733956232E-04 -.39911744465420E-02 -.80481787540507E-02 -.29017540383858E-01
  13       10PY      -.77654514877456E-04 -.60745601967779E-04 0.81982155273748E-01 -.19328713236082E-01 -.43063105578500E-01
  14       10PZ      -.76489735030824E-05 0.97624115067670E-05 0.50088720007204E-03 0.13285773553525E-03 0.99770539142677E-03
  15       11PX      -.38943993828336E-04 0.10731668479888E-03 -.64682985108554E-02 -.29295458258988E-02 -.87757097500173E-02
  16       11PY      0.41747248801499E-03 0.31887183813441E-03 0.30433444107586E-01 -.74474101738174E-02 -.20594621063714E-01
  17       11PZ      0.47580545505556E-04 -.39084308851719E-04 0.39591798935245E-03 -.40503615897816E-03 0.58580651314983E-03
  18       12PX      -.13560593356225E-02 0.82130124049417E-03 0.74451841705531E-02 0.27077970809853E-02 0.22344302851958E-02
  19       12PY      -.81282763633906E-03 -.35242897989749E-03 -.35320426982794E-01 0.72580889332030E-02 0.78743236234157E-02
  20       12PZ      0.12466061927636E-03 0.11745174646749E-03 -.54624249305776E-03 -.92975583312119E-03 0.23376531929173E-03
  21       13PX      -.26539821814381E-03 -.36295646232463E-03 0.49718878284881E-02 -.20723262206334E-02 -.63174392689046E-02
  22       13PY      0.30306516377196E-03 0.19276610757702E-03 0.37162830362767E-02 0.13685081260085E-02 0.69999798703316E-02
  23       13PZ      0.57401276596924E-04 0.10099028032488E-03 0.65965290157953E-04 -.16887539676999E-03 0.55573437648936E-03
  24       14PX      0.25547628067641E-03 0.13708423792067E-03 -.56332330887783E-02 0.53894923821182E-02 0.45476970148052E-02
  25       14PY      -.13649834164596E-04 -.70608538400230E-04 -.14729519646061E-02 0.14682953205368E-03 -.12235126726071E-02
  26       14PZ      -.21033899184969E-04 -.13008098575452E-04 -.46467220948008E-04 -.33876414074729E-04 -.48474197925445E-04
  27       15XX      -.38213622696516E-04 -.13759333148087E-06 0.33396429706920E-02 -.27227292538429E-03 -.46870086471160E-02
  28       15YY      -.94604248986266E-04 -.53428647629480E-04 0.71442293617914E-02 -.21322810928874E-02 0.99276681088486E-04
  29       15ZZ      -.25061891588682E-04 0.28861582463088E-05 -.85856953578983E-02 0.15954176254147E-02 0.41728882843627E-02
  30       15XY      0.27198418655944E-04 0.13277628738753E-04 0.20870484366937E-03 -.10206417037982E-02 -.56010432182360E-02
  31       15XZ      -.16889999886964E-06 -.20135397373415E-05 -.63564440589163E-03 0.13190380975753E-03 0.52710400870732E-03
  32       15YZ      -.45700064154773E-05 0.60783494501979E-05 -.51821223461183E-04 0.75286706155548E-05 0.35365536195064E-03
  33 2   C  1S       -.60267596107373E-04 -.21289332431390E-02 -.59937654358618E-01 -.47048907732473E-02 -.21840900998912E-01
  34        2S       -.77446270455668E-04 -.17467309563605E-02 -.92029897984202E-01 -.74166766456838E-02 -.33727293183092E-01
  35        3S       -.11842743338479E-03 0.36644808645633E-03 0.24410909281763E+00 0.18985501781538E-01 0.92420169895192E-01
  36        4S       0.50670354345518E-02 -.39094914151228E-02 0.96117337182609E-01 -.69233525269092E-01 0.47671476067908E-01
  37        5S       0.16443726950225E-01 0.29793939485332E-01 -.76115219891928E-05 -.63792716741872E+00 -.24505960123897E-01
  38        6PX      0.12515991275624E-04 -.20576021335063E-04 0.33345140739926E-01 -.26037486617692E-01 -.27298915061431E-01
  39        6PY      0.20386468468531E-04 -.18913505855288E-04 0.89946654629189E-03 -.50561659880315E-02 0.64698294810482E-01
  40        6PZ      -.10509433200745E-04 0.56793188866664E-05 -.32392468950515E-02 -.11314241599687E-03 -.83277484062202E-04
  41        7PX      -.75706591970773E-04 0.33880854809116E-03 0.56728244455194E-01 -.28002333659154E-01 -.43058961760500E-01
  42        7PY      -.62655271073888E-04 0.13133306930596E-02 -.12408869229660E-02 -.25559760541388E-02 0.99781526079875E-01
  43        7PZ      0.41070686674112E-04 -.72400327805035E-04 -.48612357746870E-02 0.64773877647901E-03 0.30227515637674E-03
  44        8PX      -.31212660660769E-02 -.24350342288192E-02 0.16993341010190E-01 0.31962065894230E-01 -.98158493951865E-02
  45        8PY      -.23542805207694E-03 -.34875924327133E-02 0.16438476499738E-01 0.13802991653683E-01 0.18778749036777E-01
[...]
 196         V       0.26717810281631E+02 0.62423793969093E+02
 197         V       0.26803235829362E+02 0.62491268371594E+02
 198         V       0.26937876871240E+02 0.62600359419174E+02
 199         V       0.39675005789119E+02 0.91292934048789E+02
 200         V       0.39841123052821E+02 0.91456413950810E+02
 Orbital energies and kinetic energies (beta):
                                 1                 2
   1         O       -.14470577970237E+02 0.22049119632097E+02
   2         O       -.14470188643420E+02 0.22043453870844E+02
   3         O       -.10405007317217E+02 0.15973099706940E+02
   4         O       -.10383013937664E+02 0.15972489033887E+02
   5         O       -.10360264453655E+02 0.15944984845654E+02
   6         O       -.10349005462088E+02 0.15959596800675E+02
   7         O       -.10341036335076E+02 0.15951280508287E+02
   8         O       -.10850218413673E+01 0.17033092928250E+01
   9         O       -.10279606695129E+01 0.22433072117642E+01
  10         O       -.91636004924197E+00 0.18820768758300E+01
  11         O       -.86173813593608E+00 0.16788356140585E+01
  12         O       -.73396775412690E+00 0.15448299184053E+01
  13         O       -.66987287125496E+00 0.14609119916791E+01
  14         O       -.64198768436709E+00 0.13612535771960E+01
  15         O       -.55931372445790E+00 0.15327728180409E+01
  16         O       -.52519059366889E+00 0.12045536838327E+01
  17         O       -.51602725576708E+00 0.11469469143736E+01
  18         O       -.48377523571343E+00 0.15555668206842E+01
  19         O       -.47554342508396E+00 0.18632003510375E+01
  20         O       -.44347375079328E+00 0.13612236437351E+01
  21         O       -.44188511018397E+00 0.14940995998623E+01
  22         O       -.38756804899483E+00 0.17800569463224E+01
  23         O       -.37335665243821E+00 0.14295681670008E+01
  24         V       -.11215281683055E+00 0.12384798103877E+01
  25         V       0.16201873708473E-02 0.80978825296805E-02
  26         V       0.43531994089296E-02 0.36355871325459E-02
  27         V       0.10083271448542E-01 0.38456661045371E-01
  28         V       0.12890384377693E-01 0.19516153719620E-01
  29         V       0.13445253192048E-01 0.16049161803424E-01
  30         V       0.17292208059840E-01 0.20369543037590E-01
  31         V       0.18876726356332E-01 0.22057108830760E-01
  32         V       0.19349544339004E-01 0.17778723309546E-01
  33         V       0.20838282795525E-01 0.21048172209234E-01
  34         V       0.27383424113991E-01 0.29912073463172E-01
  35         V       0.40193524016135E-01 0.14001472735785E+01
  36         V       0.44486487512285E-01 0.29763587047607E+00
  37         V       0.54543231163348E-01 0.19315204213821E+00
  38         V       0.57893009628652E-01 0.25016168703888E+00
  39         V       0.61768127611574E-01 0.85119323531535E-01
  40         V       0.64523234759444E-01 0.93674450538408E+00
  41         V       0.67425447310503E-01 0.43788882799446E+00
  42         V       0.69371736791926E-01 0.18731608776799E+00
  43         V       0.72934421746810E-01 0.16726660099406E+00
  44         V       0.77806420763176E-01 0.16631557826908E+00
  45         V       0.82232994589296E-01 0.16653338136556E+00
  46         V       0.91244619702831E-01 0.29656553974957E+00
  47         V       0.93885702345685E-01 0.95036833400252E+00
  48         V       0.10517112719527E+00 0.39591790846227E+00
  49         V       0.12139798181516E+00 0.26633987765901E+00
  50         V       0.12516080922237E+00 0.50814079102735E+00
  51         V       0.14293287599934E+00 0.43292045891496E+00
  52         V       0.14446821440051E+00 0.43686469734190E+00
  53         V       0.15251959039636E+00 0.57045600366629E+00
  54         V       0.15837753564532E+00 0.48532162443356E+00
  55         V       0.16613681550940E+00 0.40865040170302E+00
  56         V       0.16754281362021E+00 0.65300778175055E+00
  57         V       0.17817235606112E+00 0.50565344134689E+00
  58         V       0.18187632006783E+00 0.42574818263381E+00
  59         V       0.18786022430323E+00 0.47821807619781E+00
  60         V       0.19519268869902E+00 0.63150227800267E+00
  61         V       0.19650618237300E+00 0.41426485552290E+00
  62         V       0.20362174518791E+00 0.36338695820375E+00
  63         V       0.20594354144678E+00 0.37787638243505E+00
  64         V       0.21064667326367E+00 0.38728894333995E+00
  65         V       0.21508074076495E+00 0.87410440119861E+00
  66         V       0.23589005883288E+00 0.54727291711742E+00
  67         V       0.24073843375593E+00 0.56014554963103E+00
  68         V       0.26188298197917E+00 0.48688314374642E+00
  69         V       0.27215632533010E+00 0.80553401416156E+00
  70         V       0.27322491786320E+00 0.10395127141859E+01
  71         V       0.29012454113020E+00 0.67291687982047E+00
  72         V       0.29884336211055E+00 0.96484109709577E+00
  73         V       0.30244556988249E+00 0.81098070525114E+00
  74         V       0.31453419335725E+00 0.56968014436766E+00
  75         V       0.32125959406371E+00 0.11397123535952E+01
  76         V       0.33522047789052E+00 0.56480624618335E+00
  77         V       0.34811313930465E+00 0.82067410470576E+00
  78         V       0.35311003805466E+00 0.85286675835386E+00
  79         V       0.36241718797358E+00 0.12639335721882E+01
  80         V       0.37526616055268E+00 0.71686916938064E+00
  81         V       0.38206813266699E+00 0.10132570254288E+01
  82         V       0.40413354094632E+00 0.11098895206258E+01
  83         V       0.43399224095410E+00 0.11046195023464E+01
  84         V       0.45287767812597E+00 0.15422828874272E+01
  85         V       0.48600031880613E+00 0.18738288264457E+01
  86         V       0.52369421179228E+00 0.15965860451492E+01
  87         V       0.57698353252810E+00 0.13492765371490E+01
  88         V       0.58533502359325E+00 0.12606342042262E+01
  89         V       0.60416354751496E+00 0.13668505662266E+01
  90         V       0.63158242419039E+00 0.14877204492768E+01
  91         V       0.63644067922858E+00 0.16099929866030E+01
  92         V       0.65507951917230E+00 0.16118654731442E+01
  93         V       0.66443405520795E+00 0.18825218496860E+01
  94         V       0.68053980430065E+00 0.16327355687899E+01
  95         V       0.68990499526670E+00 0.17044741206151E+01
  96         V       0.70211814811464E+00 0.15556763655903E+01
  97         V       0.71233508945712E+00 0.16074663981883E+01
  98         V       0.74502446414577E+00 0.16477496393095E+01
  99         V       0.76530062790004E+00 0.15887738191087E+01
 100         V       0.79785348453879E+00 0.16175228796827E+01
 101         V       0.82316481451344E+00 0.19484990122138E+01
 102         V       0.82637743023131E+00 0.19998703213488E+01
 103         V       0.84018121021176E+00 0.18459146779092E+01
 104         V       0.86031775203141E+00 0.20754950967987E+01
 105         V       0.87400386801805E+00 0.16906893765402E+01
 106         V       0.89800173647710E+00 0.20755158134246E+01
 107         V       0.92427425280449E+00 0.18432386509887E+01
 108         V       0.94135973225818E+00 0.19488816222000E+01
 109         V       0.95004294432879E+00 0.22138301093097E+01
 110         V       0.96783684469982E+00 0.23033856564970E+01
 111         V       0.10045576825842E+01 0.21338978671708E+01
 112         V       0.10264413609968E+01 0.20421996099634E+01
 113         V       0.10304709575511E+01 0.20882129844501E+01
 114         V       0.10830316943925E+01 0.21207604920450E+01
 115         V       0.10998189193606E+01 0.21601371766208E+01
 116         V       0.11370371100436E+01 0.25555135441713E+01
 117         V       0.11439873746781E+01 0.21766449165284E+01
 118         V       0.11673563072878E+01 0.22555785032786E+01
 119         V       0.11926178839419E+01 0.20788003841149E+01
 120         V       0.12430510946408E+01 0.22036370776503E+01
 121         V       0.13003863451864E+01 0.24651290454526E+01
 122         V       0.13222770466093E+01 0.22279718022963E+01
 123         V       0.13319526775687E+01 0.22703241218950E+01
 124         V       0.13577475385770E+01 0.22402001440423E+01
 125         V       0.14020158617485E+01 0.24228492323663E+01
 126         V       0.15009782868805E+01 0.26065092908527E+01
 127         V       0.15537093649001E+01 0.24892326102520E+01
 128         V       0.15700054224201E+01 0.24553466063879E+01
 129         V       0.15842273143860E+01 0.24472231970855E+01
 130         V       0.16236075997673E+01 0.26200988226262E+01
 131         V       0.16584957069353E+01 0.24587098630425E+01
 132         V       0.16827088837935E+01 0.27644868693470E+01
 133         V       0.17023049307067E+01 0.25948955294663E+01
 134         V       0.17368579375442E+01 0.27105104761162E+01
 135         V       0.17848116747289E+01 0.28716096948862E+01
 136         V       0.18194700240970E+01 0.29438763231000E+01
 137         V       0.18502621121235E+01 0.27956866127249E+01
 138         V       0.18983358079387E+01 0.29604122315753E+01
 139         V       0.19362513333254E+01 0.32755939382557E+01
 140         V       0.19652243033956E+01 0.31638048422411E+01
 141         V       0.19776459492012E+01 0.31588479265834E+01
 142         V       0.20211597913631E+01 0.32914663778831E+01
 143         V       0.20882405310553E+01 0.34788722296716E+01
 144         V       0.21252324781971E+01 0.33477832215358E+01
 145         V       0.21497506309073E+01 0.33007672459771E+01
 146         V       0.21615416500344E+01 0.33346579630655E+01
 147         V       0.22065497355861E+01 0.37485174109471E+01
 148         V       0.22276180857506E+01 0.34650667565691E+01
 149         V       0.23326918281718E+01 0.41839799620878E+01
 150         V       0.23584513957693E+01 0.39119150245412E+01
 151         V       0.24048453782822E+01 0.39584878356036E+01
 152         V       0.24849372673459E+01 0.42016517353719E+01
 153         V       0.25115569691871E+01 0.38942646558410E+01
 154         V       0.26037716231679E+01 0.46824978454527E+01
 155         V       0.26606297814118E+01 0.46856303741381E+01
 156         V       0.27098147889940E+01 0.49692294890371E+01
 157         V       0.27333758168573E+01 0.52012092842918E+01
 158         V       0.27760862991163E+01 0.49416394073462E+01
 159         V       0.27919508967867E+01 0.55625725355179E+01
 160         V       0.28207094924170E+01 0.48259436584520E+01
 161         V       0.28387975072035E+01 0.46298117144959E+01
 162         V       0.28667838586970E+01 0.46193692962114E+01
 163         V       0.29042601373847E+01 0.50063322484873E+01
 164         V       0.29376373373650E+01 0.60942986830815E+01
 165         V       0.29616992550738E+01 0.58416404383866E+01
 166         V       0.29947355092791E+01 0.52924246252981E+01
 167         V       0.29978545378274E+01 0.57393730531609E+01
 168         V       0.30377499756078E+01 0.56711045563545E+01
 169         V       0.30657558888910E+01 0.67159271223687E+01
 170         V       0.30881465044084E+01 0.61387052464535E+01
 171         V       0.31090119885794E+01 0.62293447274045E+01
 172         V       0.31843371250846E+01 0.60552247297204E+01
 173         V       0.32413145785505E+01 0.69036793465607E+01
 174         V       0.32690071671040E+01 0.68056871978357E+01
 175         V       0.34077714226536E+01 0.71011568071070E+01
 176         V       0.34314989478075E+01 0.66402354154984E+01
 177         V       0.34513663059945E+01 0.69509642470099E+01
 178         V       0.35224613067101E+01 0.70413805217654E+01
 179         V       0.35856575038309E+01 0.64628930573630E+01
 180         V       0.36161537635782E+01 0.70861574950416E+01
 181         V       0.36717013330671E+01 0.66764917162786E+01
 182         V       0.39857350838401E+01 0.89999778188694E+01
 183         V       0.40590443542829E+01 0.75864178435181E+01
 184         V       0.40847374529486E+01 0.87846442536219E+01
 185         V       0.41179321412274E+01 0.87491465537993E+01
 186         V       0.42318730417700E+01 0.74940170628956E+01
 187         V       0.43570545184898E+01 0.77218477423593E+01
 188         V       0.44147423855908E+01 0.93112742811411E+01
 189         V       0.44660229969142E+01 0.89785380106635E+01
 190         V       0.46458587607214E+01 0.86358286573239E+01
 191         V       0.50741109365037E+01 0.92940506858008E+01
 192         V       0.51633220724340E+01 0.10294664585045E+02
 193         V       0.57469528446588E+01 0.10532374087591E+02
 194         V       0.26644111229774E+02 0.62344733693814E+02
 195         V       0.26715719641118E+02 0.62430646726411E+02
 196         V       0.26728561797146E+02 0.62425844117736E+02
 197         V       0.26800576844388E+02 0.62492430339249E+02
 198         V       0.26940246241757E+02 0.62598948379854E+02
 199         V       0.39671758531396E+02 0.91295129462269E+02
 200         V       0.39847415835079E+02 0.91451841243423E+02
 Total kinetic energy from orbitals= 2.997037640369D+02
                          Isotropic Fermi Contact Couplings
        Atom                 a.u.       MegaHertz       Gauss      10(-4) cm-1
     1  N(14)             -0.01636      -5.28605      -1.88619      -1.76324
     2  C(13)              0.04460      50.13772      17.89039      16.72414
     3  C(13)             -0.02307     -25.93043      -9.25262      -8.64946
     4  C(13)              0.01275      14.33664       5.11567       4.78219
     5  C(13)              0.02169      24.38858       8.70245       8.13516
     6  C(13)             -0.04237     -47.63536     -16.99748     -15.88944
     7  N(14)              0.01519       4.90801       1.75130       1.63714
     8  H(1)               0.00053       2.35033       0.83866       0.78399
     9  H(1)              -0.00460     -20.55099      -7.33310      -6.85507
    10  H(1)              -0.00731     -32.69175     -11.66523     -10.90479
 --------------------------------------------------------
       Center         ----  Spin Dipole Couplings  ----
                      3XX-RR        3YY-RR        3ZZ-RR
 --------------------------------------------------------
     1   Atom        0.118892      0.126197     -0.245088
     2   Atom       -0.332708     -0.339979      0.672687
     3   Atom        0.033355      0.041054     -0.074409
     4   Atom       -0.149386     -0.137635      0.287020
     5   Atom       -0.177043     -0.202822      0.379865
     6   Atom        0.107567      0.014250     -0.121817
     7   Atom       -0.290990     -0.220072      0.511062
     8   Atom        0.000792      0.004965     -0.005758
     9   Atom        0.004505      0.001781     -0.006286
    10   Atom        0.019539     -0.014190     -0.005350
 --------------------------------------------------------
                        XY            XZ            YZ
 --------------------------------------------------------
     1   Atom        0.014073     -0.012303     -0.007552
     2   Atom        0.002713     -0.041627      0.019805
     3   Atom       -0.000123     -0.003534      0.000031
     4   Atom        0.005398     -0.014639      0.000343
     5   Atom       -0.020695      0.103097     -0.052060
     6   Atom        0.041809      0.008821     -0.000583
     7   Atom       -0.029434     -0.002144      0.021301
     8   Atom       -0.000749      0.000172     -0.000851
     9   Atom        0.019563      0.000589      0.000214
    10   Atom       -0.017014     -0.007479      0.002708
 --------------------------------------------------------


 ---------------------------------------------------------------------------------
              Anisotropic Spin Dipole Couplings in Principal Axis System
 ---------------------------------------------------------------------------------

       Atom             a.u.   MegaHertz   Gauss  10(-4) cm-1        Axes

              Baa    -0.2456    -9.474    -3.380    -3.160  0.0330  0.0190  0.9993
     1 N(14)  Bbb     0.1081     4.168     1.487     1.390  0.7868 -0.6170 -0.0142
              Bcc     0.1376     5.305     1.893     1.770  0.6163  0.7867 -0.0353
 
              Baa    -0.3420   -45.894   -16.376   -15.308 -0.4211  0.9063 -0.0350
     2 C(13)  Bbb    -0.3328   -44.657   -15.935   -14.896  0.9061  0.4221  0.0292
              Bcc     0.6748    90.550    32.311    30.204 -0.0412  0.0194  0.9990
 
              Baa    -0.0745   -10.000    -3.568    -3.336  0.0327 -0.0002  0.9995
     3 C(13)  Bbb     0.0335     4.491     1.603     1.498  0.9993  0.0164 -0.0327
              Bcc     0.0411     5.509     1.966     1.838 -0.0164  0.9999  0.0008
 
              Baa    -0.1519   -20.386    -7.274    -6.800  0.9348 -0.3539  0.0315
     4 C(13)  Bbb    -0.1356   -18.195    -6.492    -6.069  0.3537  0.9353  0.0115
              Bcc     0.2875    38.581    13.767    12.869 -0.0335  0.0004  0.9994
 
              Baa    -0.2144   -28.767   -10.265    -9.596  0.5143  0.8575 -0.0141
     5 C(13)  Bbb    -0.1889   -25.353    -9.047    -8.457  0.8391 -0.5065 -0.1984
              Bcc     0.4033    54.121    19.312    18.053  0.1773 -0.0902  0.9800
 
              Baa    -0.1222   -16.397    -5.851    -5.469 -0.0414  0.0170  0.9990
     6 C(13)  Bbb    -0.0016    -0.219    -0.078    -0.073 -0.3552  0.9343 -0.0306
              Bcc     0.1238    16.616     5.929     5.542  0.9339  0.3562  0.0327
 
              Baa    -0.3016   -11.634    -4.151    -3.881  0.9401  0.3409 -0.0065
     7 N(14)  Bbb    -0.2100    -8.101    -2.891    -2.702 -0.3409  0.9396 -0.0288
              Bcc     0.5117    19.735     7.042     6.583 -0.0037  0.0292  0.9996
 
              Baa    -0.0058    -3.109    -1.109    -1.037 -0.0171  0.0774  0.9969
     8 H(1)   Bbb     0.0007     0.353     0.126     0.118  0.9850  0.1722  0.0035
              Bcc     0.0052     2.756     0.983     0.919 -0.1714  0.9820 -0.0792
 
              Baa    -0.0165    -8.790    -3.136    -2.932 -0.6822  0.7308  0.0241
     9 H(1)   Bbb    -0.0063    -3.357    -1.198    -1.120  0.0019 -0.0311  0.9995
              Bcc     0.0228    12.146     4.334     4.052  0.7312  0.6819  0.0198
 
              Baa    -0.0213   -11.360    -4.053    -3.789  0.3885  0.9211  0.0258
    10 H(1)   Bbb    -0.0072    -3.844    -1.372    -1.282  0.2009 -0.1120  0.9732
              Bcc     0.0285    15.204     5.425     5.072  0.8993 -0.3729 -0.2286
 

 ---------------------------------------------------------------------------------

 No NMR shielding tensors so no spin-rotation constants.
 Leave Link  601 at Fri May 26 02:45:36 2023, MaxMem= 3276800000 cpu:       4.8
 (Enter /local/g09-source/g09/l9999.exe)

 Test job not archived.
 1\1\GINC-WUX11\SP\UwB97XD\Gen\C5H3N2(2)\ISSLERK\26-May-2023\0\\#p wB97
 XD/GEN 6D Iop(6/7=3) Iop(9/40=14) scf(maxcyc=200,conver=8) nosym Guess
 (Read,TCheck) GFInput\\Comment\\0,2\N,0,0.951920169,-0.928238497,-0.00
 2453267\C,0,-0.241784017,-0.113870379,0.057252856\C,0,0.059605242,1.26
 1091258,-0.001438642\C,0,1.358420042,1.359373293,0.06360549\C,0,1.9436
 83768,-0.011022595,-0.055110355\C,0,-1.571897921,-0.61829006,-0.019320
 426\N,0,-2.670371841,-1.023247108,-0.016861474\H,0,-0.548132898,2.2430
 69053,0.010142163\H,0,2.419596166,1.962365134,0.021870451\H,0,3.129240
 019,-0.384669442,-0.299588149\\Version=EM64L-G09RevA.02\HF=-301.647690
 3\S2=0.783521\S2-1=0.\S2A=0.750823\RMSD=6.975e-09\Dipole=1.4531677,1.4
 194999,-0.0512751\Quadrupole=0.3974401,-0.3335113,-0.0639288,-0.970051
 5,-0.6264641,0.0038915\PG=C01 [X(C5H3N2)]\\@


 THE WORLD IS MADE UP OF THE WILLS, THE WON'TS, AND THE CANT'S:
 THE WILLS DO EVERYTHING,
 THE WON'TS DO NOTHING,
 THE CAN'TS CAN'T DO ANYTHING.

                               -- FROM WALT DISNEY'S "BLACK HOLE"
 Job cpu time:  0 days  0 hours 14 minutes 59.9 seconds.
 File lengths (MBytes):  RWF=     42 Int=      0 D2E=      0 Chk=      3 Scr=      1
 Normal termination of Gaussian 09 at Fri May 26 02:45:36 2023.
